Written by MDAnalysis
66768
    1DOPC     N    1   1.225  11.277   6.659 -0.6092  0.5922 -0.2964
    1DOPC   C12    2   1.224  11.316   6.507 -0.4311 -0.4791 -0.8510
    1DOPC  H12A    3   1.274  11.412   6.499  0.1681 -0.7009  0.0427
    1DOPC  H12B    4   1.120  11.326   6.478 -0.3060 -1.2211 -1.5885
    1DOPC   C13    5   1.164  11.139   6.682  1.2133  0.5793  0.8484
    1DOPC  H13A    6   1.060  11.153   6.657  2.2874  4.2386 -2.5465
    1DOPC  H13B    7   1.203  11.060   6.621 -1.9609 -1.1998  0.9152
    1DOPC  H13C    8   1.171  11.106   6.785 -1.2002  0.2614  0.9892
    1DOPC   C14    9   1.153  11.374   6.743  0.5593  0.6607  0.3927
    1DOPC  H14A   10   1.207  11.464   6.768  2.2407 -0.5840  1.5209
    1DOPC  H14B   11   1.063  11.398   6.689  1.3494 -0.5225 -1.5927
    1DOPC  H14C   12   1.133  11.338   6.843 -0.8086  1.4644  0.4330
    1DOPC   C15   13   1.364  11.261   6.711 -0.1589  0.4228  0.3582
    1DOPC  H15A   14   1.381  11.240   6.816  1.7058 -0.9329 -0.1721
    1DOPC  H15B   15   1.412  11.356   6.689 -0.3799  0.8223  1.5053
    1DOPC  H15C   16   1.418  11.181   6.664 -0.6564 -0.9591  2.0285
    1DOPC   C11   17   1.279  11.218   6.398  0.8409 -0.4116 -0.6634
    1DOPC  H11A   18   1.226  11.121   6.396 -0.2426  0.0987  1.1623
    1DOPC  H11B   19   1.271  11.270   6.301 -0.7992 -0.1439 -0.4056
    1DOPC     P   20   1.542  11.272   6.390 -0.1730 -0.0770 -0.4287
    1DOPC   O13   21   1.656  11.246   6.484 -0.0475  0.0008 -0.0670
    1DOPC   O14   22   1.492  11.411   6.376  0.2419 -0.0657 -0.1422
    1DOPC   O12   23   1.416  11.182   6.423 -0.0790  0.1512  0.0542
    1DOPC   O11   24   1.587  11.217   6.249 -0.3122  0.4235  0.0831
    1DOPC    C1   25   1.508  11.231   6.140  0.4143 -0.3860  0.3802
    1DOPC    HA   26   1.483  11.337   6.122  0.1388 -0.3872  0.7377
    1DOPC    HB   27   1.412  11.176   6.154  0.7875 -0.2876  4.3724
    1DOPC    C2   28   1.564  11.166   6.007 -0.5714 -0.2522 -0.2734
    1DOPC    HS   29   1.618  11.076   6.043  0.7943  0.0622 -1.4800
    1DOPC   O21   30   1.655  11.259   5.951 -0.6060 -0.2701  0.8827
    1DOPC   C21   31   1.780  11.251   5.992 -0.1694 -0.1259 -0.0807
    1DOPC   O22   32   1.829  11.173   6.075  0.5324 -0.3494  0.1218
    1DOPC   C22   33   1.859  11.353   5.910 -0.7405  0.0131  0.8142
    1DOPC   H2R   34   1.962  11.364   5.951 -1.4391 -0.2727  2.7449
    1DOPC   H2S   35   1.811  11.452   5.924 -2.9192 -1.0516  1.3565
    1DOPC    C3   36   1.456  11.134   5.904  0.7972 -0.1606  0.5000
    1DOPC    HX   37   1.380  11.215   5.908  0.8806 -0.1322  1.8311
    1DOPC    HY   38   1.420  11.040   5.950 -0.0095 -1.1408 -1.9429
    1DOPC   O31   39   1.521  11.106   5.779 -0.3976 -0.3806 -0.1139
    1DOPC   C31   40   1.519  11.207   5.691  0.0477 -0.2841 -0.1539
    1DOPC   O32   41   1.500  11.324   5.713  0.0786  0.0961  0.0402
    1DOPC   C32   42   1.536  11.151   5.553 -0.2413  0.9327  0.3665
    1DOPC   H2X   43   1.623  11.083   5.564 -1.3471 -0.1925  3.0673
    1DOPC   H2Y   44   1.450  11.083   5.536 -1.5371  2.5664  0.1758
    1DOPC   C23   45   1.869  11.315   5.758 -0.2205  0.0668  1.1549
    1DOPC   H3R   46   1.924  11.392   5.700  0.6848 -0.2947  1.5140
    1DOPC   H3S   47   1.768  11.298   5.716 -0.9711 -0.1955  2.9496
    1DOPC   C24   48   1.951  11.184   5.734  0.2151  0.1044 -0.3329
    1DOPC   H4R   49   1.907  11.104   5.797 -2.3549  1.4312 -0.3011
    1DOPC   H4S   50   2.059  11.184   5.761  0.2121 -1.9038 -0.1206
    1DOPC   C25   51   1.942  11.141   5.593 -0.7170 -0.2492 -0.1015
    1DOPC   H5R   52   1.968  11.224   5.524 -3.7391 -0.3558 -1.5334
    1DOPC   H5S   53   1.839  11.121   5.559 -1.2691  0.2937  1.1906
    1DOPC   C26   54   2.025  11.022   5.565 -0.7033  0.1191  0.2638
    1DOPC   H6R   55   1.984  10.938   5.625  0.9007  0.3666  1.7791
    1DOPC   H6S   56   2.132  11.037   5.591  0.5837 -1.5531 -3.3717
    1DOPC   C27   57   2.030  10.978   5.419  0.7073  0.3178  0.2769
    1DOPC   H7R   58   2.078  11.060   5.361 -0.8654 -0.4379 -2.2844
    1DOPC   H7S   59   1.927  10.969   5.378  1.1778  2.3702 -1.5464
    1DOPC   C28   60   2.102  10.840   5.386  0.5081 -0.0855 -0.3147
    1DOPC   H8R   61   2.096  10.773   5.474  2.7593 -0.5598 -0.4619
    1DOPC   H8S   62   2.207  10.871   5.369  0.0265  1.0974 -1.3606
    1DOPC   C29   63   2.034  10.773   5.266  0.6249 -0.0727 -0.0099
    1DOPC   H9R   64   1.939  10.721   5.284  0.9739 -0.3883  1.0347
    1DOPC  C210   65   2.078  10.784   5.140  0.3480 -0.3219  0.1687
    1DOPC  H10R   66   2.036  10.714   5.065  1.7634 -0.1584 -0.8152
    1DOPC  C211   67   2.214  10.841   5.105  0.6572 -0.0884  0.1984
    1DOPC  H11R   68   2.303  10.774   5.112  0.5304 -0.1300  1.9912
    1DOPC  H11S   69   2.247  10.930   5.163  2.2737 -0.2035 -0.5043
    1DOPC  C212   70   2.210  10.885   4.954 -0.1298 -0.2246  0.1971
    1DOPC  H12R   71   2.189  10.797   4.890  1.1098  0.5560 -1.3359
    1DOPC  H12S   72   2.307  10.922   4.916 -1.3995  1.3863 -1.7020
    1DOPC  C213   73   2.092  10.989   4.943 -1.0177  0.0285  0.8096
    1DOPC  H13R   74   2.115  11.058   5.026  0.4722  0.4209  0.0983
    1DOPC  H13S   75   1.994  10.946   4.972 -0.6955 -3.5478 -2.6341
    1DOPC  C214   76   2.078  11.067   4.807 -0.9854  0.0501 -0.3264
    1DOPC  H14R   77   1.998  11.143   4.815  0.4505  1.6763 -0.7544
    1DOPC  H14S   78   2.055  10.995   4.726 -0.4838 -1.4875  0.8503
    1DOPC  C215   79   2.218  11.137   4.776 -0.2122 -0.2176 -0.2921
    1DOPC  H15R   80   2.297  11.061   4.761 -0.1272 -0.3170  0.6023
    1DOPC  H15S   81   2.251  11.195   4.865  2.9087 -1.8768 -0.2461
    1DOPC  C216   82   2.219  11.223   4.657  0.1909  0.1536 -0.4386
    1DOPC  H16R   83   2.133  11.294   4.657  0.2323  0.2066 -1.1233
    1DOPC  H16S   84   2.211  11.163   4.565  1.4838 -0.0114 -0.4569
    1DOPC  C217   85   2.342  11.314   4.647  0.5125  0.0778  0.2783
    1DOPC  H17R   86   2.438  11.262   4.626  1.6020  1.5304  1.5217
    1DOPC  H17S   87   2.356  11.360   4.747  0.8475 -1.8708  1.1897
    1DOPC  C218   88   2.320  11.436   4.553  0.1794  0.4237  0.0006
    1DOPC  H18R   89   2.317  11.411   4.445 -0.4548 -1.1466  0.3503
    1DOPC  H18S   90   2.407  11.504   4.559 -0.6127  1.9641 -3.6263
    1DOPC  H18T   91   2.223  11.489   4.567 -0.7587 -1.4978  1.3579
    1DOPC   C33   92   1.557  11.254   5.442 -0.1963 -0.0771 -0.0468
    1DOPC   H3X   93   1.625  11.334   5.479  0.1116  1.4230 -3.4757
    1DOPC   H3Y   94   1.462  11.303   5.414 -0.4085 -0.2729  0.3246
    1DOPC   C34   95   1.630  11.195   5.323  0.3232 -0.5981  0.0917
    1DOPC   H4X   96   1.547  11.135   5.279 -0.4539 -1.3004  2.3728
    1DOPC   H4Y   97   1.719  11.138   5.356 -0.9624 -0.7061  3.8896
    1DOPC   C35   98   1.690  11.301   5.223 -0.3520 -0.2814 -0.2048
    1DOPC   H5X   99   1.772  11.354   5.276  0.1310  1.2179 -2.3165
    1DOPC   H5Y  100   1.607  11.370   5.194  0.7893  0.2545 -2.3389
    1DOPC   C36  101   1.751  11.238   5.102 -0.2878  0.2573  0.0455
    1DOPC   H6X  102   1.802  11.146   5.138  1.1665  1.5438  1.4362
    1DOPC   H6Y  103   1.666  11.207   5.039 -0.7963 -1.0857  1.3371
    1DOPC   C37  104   1.855  11.312   5.027 -0.0992  0.3270 -0.2718
    1DOPC   H7X  105   1.923  11.348   5.107 -2.3306 -0.9124  2.3417
    1DOPC   H7Y  106   1.916  11.241   4.967  0.3348  1.4141 -1.1523
    1DOPC   C38  107   1.801  11.426   4.943  0.3835  0.2816  0.2159
    1DOPC   H8X  108   1.885  11.486   4.903  0.5947 -0.2767 -0.1835
    1DOPC   H8Y  109   1.738  11.496   5.003 -0.2073 -1.0084  1.1550
    1DOPC   C39  110   1.720  11.381   4.822 -1.0108  0.5717 -0.4399
    1DOPC   H9X  111   1.663  11.287   4.834  2.3121 -1.3718  2.1002
    1DOPC  C310  112   1.721  11.438   4.701  0.1171 -0.2708  0.4812
    1DOPC  H10X  113   1.668  11.387   4.620  0.4062 -0.5993  0.4979
    1DOPC  C311  114   1.796  11.562   4.653 -0.2611 -0.0129  0.4440
    1DOPC  H11X  115   1.851  11.617   4.733  1.1977 -1.2172  0.3161
    1DOPC  H11Y  116   1.721  11.635   4.614 -0.0436  1.3924  2.4898
    1DOPC  C312  117   1.910  11.527   4.552 -0.6208 -0.3056  0.3192
    1DOPC  H12X  118   1.899  11.431   4.497  0.5512 -0.6999  0.7470
    1DOPC  H12Y  119   1.997  11.496   4.613  1.6527  2.0349 -1.5741
    1DOPC  C313  120   1.954  11.638   4.451  0.5678  0.2200  0.9298
    1DOPC  H13X  121   2.026  11.595   4.379 -2.7851  0.9301 -3.1947
    1DOPC  H13Y  122   1.872  11.661   4.380  0.3398 -0.0776  1.0942
    1DOPC  C314  123   2.004  11.768   4.515  0.2112 -0.3550  0.1409
    1DOPC  H14X  124   1.916  11.809   4.570  1.0257  0.0195  1.2120
    1DOPC  H14Y  125   2.080  11.736   4.589  1.3785 -1.7310 -1.5818
    1DOPC  C315  126   2.076  11.856   4.411  0.8689 -0.7482 -0.0905
    1DOPC  H15X  127   2.009  11.861   4.323  2.2450  1.0340 -1.1054
    1DOPC  H15Y  128   2.170  11.810   4.376  1.4338 -0.0786  0.5050
    1DOPC  C316  129   2.120  11.999   4.461  0.3177  0.6013 -0.4014
    1DOPC  H16X  130   2.177  11.984   4.555  1.4351 -0.8090 -1.2754
    1DOPC  H16Y  131   2.189  12.044   4.387 -1.5210  1.6264 -1.5710
    1DOPC  C317  132   2.007  12.107   4.472  0.5038  0.5096  0.1610
    1DOPC  H17X  133   1.913  12.053   4.497  0.8124  0.0709  0.3789
    1DOPC  H17Y  134   2.033  12.178   4.554 -1.0846  1.4981 -0.1385
    1DOPC  C318  135   1.982  12.197   4.354  0.1968  0.4493 -0.2541
    1DOPC  H18X  136   2.078  12.248   4.331  0.3032  1.6145  2.4487
    1DOPC  H18Y  137   1.931  12.135   4.276  0.5071 -0.1208 -0.0046
    1DOPC  H18Z  138   1.899  12.267   4.378 -1.5598 -1.5288 -0.1995
    2DOPC     N  139   3.041   4.756   6.438 -0.7657  0.2318 -0.1469
    2DOPC   C12  140   3.109   4.849   6.335 -0.1490 -0.6721  0.4016
    2DOPC  H12A  141   3.185   4.910   6.380  1.5083 -2.5630  0.3013
    2DOPC  H12B  142   3.032   4.906   6.284  0.9555 -0.1744 -0.7689
    2DOPC   C13  143   2.977   4.635   6.375 -0.4456  0.0373  0.1137
    2DOPC  H13A  144   3.045   4.566   6.328  1.8697 -0.6682  4.0251
    2DOPC  H13B  145   2.923   4.571   6.444 -0.6201  1.5148  1.4197
    2DOPC  H13C  146   2.908   4.674   6.302 -0.0715 -3.3030 -2.2390
    2DOPC   C14  147   2.936   4.822   6.523  0.5608  0.6275  0.4356
    2DOPC  H14A  148   2.966   4.913   6.574 -1.0674  2.6674 -2.0703
    2DOPC  H14B  149   2.851   4.848   6.463  0.0594  3.0030  2.0234
    2DOPC  H14C  150   2.905   4.752   6.600  1.5460 -0.0599  0.2327
    2DOPC   C15  151   3.149   4.702   6.526  0.1477  1.0090  0.4556
    2DOPC  H15A  152   3.171   4.789   6.586 -1.6128  2.5095 -0.9345
    2DOPC  H15B  153   3.233   4.690   6.460 -0.3038  0.8944 -0.1051
    2DOPC  H15C  154   3.116   4.613   6.577  2.3017 -0.1627 -0.0805
    2DOPC   C11  155   3.190   4.786   6.216 -0.1806  0.2312  0.1793
    2DOPC  H11A  156   3.197   4.864   6.137 -0.1805 -0.9379 -1.0130
    2DOPC  H11B  157   3.286   4.753   6.259 -0.6775 -1.5548 -0.0073
    2DOPC     P  158   3.042   4.667   6.033 -0.3964 -0.1137  0.2315
    2DOPC   O13  159   2.922   4.746   6.049  0.1159  0.0494  0.4255
    2DOPC   O14  160   3.019   4.528   5.997  0.1357 -0.0655  0.3754
    2DOPC   O12  161   3.136   4.665   6.162  0.6876  0.3275  0.2926
    2DOPC   O11  162   3.139   4.724   5.920  0.3214 -0.2664  0.8712
    2DOPC    C1  163   3.085   4.760   5.793 -0.2903 -0.3073 -0.3059
    2DOPC    HA  164   3.063   4.869   5.800 -1.7047 -0.6063  0.3339
    2DOPC    HB  165   2.993   4.704   5.768 -0.2479  0.3045 -1.9832
    2DOPC    C2  166   3.172   4.729   5.669 -0.3839  0.0101  0.5721
    2DOPC    HS  167   3.217   4.628   5.672  1.2099  0.6080 -1.1645
    2DOPC   O21  168   3.275   4.831   5.654  0.4194  0.3588 -0.2628
    2DOPC   C21  169   3.392   4.793   5.699 -0.2969 -0.7539 -1.1617
    2DOPC   O22  170   3.422   4.684   5.745  0.2680 -0.0376  0.0295
    2DOPC   C22  171   3.488   4.911   5.719 -0.0114 -0.2580  0.2153
    2DOPC   H2R  172   3.558   4.884   5.801 -0.0454  1.8757  0.9941
    2DOPC   H2S  173   3.433   5.007   5.730  1.0001  0.3128  0.4368
    2DOPC    C3  174   3.091   4.732   5.532 -0.7272  0.0009 -0.3545
    2DOPC    HX  175   3.034   4.827   5.533  2.3540  2.0067 -0.3142
    2DOPC    HY  176   3.013   4.653   5.526 -1.6053  0.8860 -0.8588
    2DOPC   O31  177   3.175   4.740   5.415 -0.3503 -0.3193 -1.1423
    2DOPC   C31  178   3.221   4.624   5.386 -0.6265 -0.5709 -0.3479
    2DOPC   O32  179   3.185   4.522   5.445  0.1135 -0.8327 -0.5246
    2DOPC   C32  180   3.319   4.618   5.271  0.5238 -0.2556  0.0914
    2DOPC   H2X  181   3.268   4.573   5.183  0.8218 -2.3877  0.9300
    2DOPC   H2Y  182   3.333   4.724   5.244  0.4198  0.0207  1.0761
    2DOPC   C23  183   3.585   4.914   5.596  0.1002 -0.1154 -0.2581
    2DOPC   H3R  184   3.639   4.822   5.566  0.5724  0.3046 -0.7216
    2DOPC   H3S  185   3.659   4.986   5.635 -1.5371  0.0448  2.8546
    2DOPC   C24  186   3.515   4.965   5.476  0.4994 -0.1373 -0.1891
    2DOPC   H4R  187   3.473   5.062   5.512  0.4348 -0.0832 -0.4125
    2DOPC   H4S  188   3.431   4.898   5.449  0.3567  0.5399 -1.5360
    2DOPC   C25  189   3.615   4.985   5.362  0.1189 -0.4773 -0.0941
    2DOPC   H5R  190   3.667   4.895   5.322 -0.2913 -0.1736 -1.3608
    2DOPC   H5S  191   3.694   5.050   5.406  0.1048 -0.3917 -0.1953
    2DOPC   C26  192   3.559   5.055   5.237  0.3477  0.4695 -0.4516
    2DOPC   H6R  193   3.490   5.135   5.273 -0.9813 -1.0932  0.6312
    2DOPC   H6S  194   3.482   4.994   5.185  0.8304 -0.9074  0.3900
    2DOPC   C27  195   3.666   5.118   5.151  0.2937 -0.1065  0.5599
    2DOPC   H7R  196   3.733   5.041   5.106 -0.9032 -1.3679  0.8756
    2DOPC   H7S  197   3.724   5.188   5.214  0.8635  1.4514 -1.5862
    2DOPC   C28  198   3.601   5.200   5.040  0.3216 -0.6241 -0.3737
    2DOPC   H8R  199   3.676   5.274   5.005  0.1174  0.2863  1.0551
    2DOPC   H8S  200   3.514   5.262   5.069 -0.0482 -1.3493  0.0853
    2DOPC   C29  201   3.563   5.115   4.927 -0.5423  0.2047  0.3934
    2DOPC   H9R  202   3.599   5.011   4.922 -4.1347 -1.1538 -3.8046
    2DOPC  C210  203   3.486   5.154   4.819  0.1563 -0.9500  0.2261
    2DOPC  H10R  204   3.474   5.081   4.738  0.5566 -0.8539  0.0775
    2DOPC  C211  205   3.433   5.295   4.798  0.0434 -0.0723 -0.4280
    2DOPC  H11R  206   3.476   5.336   4.705  0.5430 -0.8608 -0.5532
    2DOPC  H11S  207   3.447   5.361   4.886  1.9048  1.0285 -1.4832
    2DOPC  C212  208   3.279   5.298   4.784 -0.5826  0.2934 -0.4080
    2DOPC  H12R  209   3.254   5.252   4.882  0.3084  1.3818  0.3549
    2DOPC  H12S  210   3.249   5.233   4.699 -1.5277  0.7368 -0.4274
    2DOPC  C213  211   3.225   5.435   4.752 -0.3169 -0.4007  0.4738
    2DOPC  H13R  212   3.226   5.448   4.642  1.4648  1.3603  0.6303
    2DOPC  H13S  213   3.298   5.509   4.790 -0.5962  0.8899 -1.3680
    2DOPC  C214  214   3.091   5.453   4.830  0.5183 -0.3442  0.0334
    2DOPC  H14R  215   3.054   5.552   4.796  0.3749 -0.6760 -0.7847
    2DOPC  H14S  216   3.116   5.466   4.938  1.1933  0.1576 -0.1765
    2DOPC  C215  217   2.981   5.350   4.806 -0.2429  0.1841 -0.2767
    2DOPC  H15R  218   3.013   5.244   4.819  2.0294  1.0145  1.7335
    2DOPC  H15S  219   2.948   5.356   4.700 -0.8138  0.4220 -0.0939
    2DOPC  C216  220   2.856   5.377   4.891  0.5517 -0.5625 -0.6485
    2DOPC  H16R  221   2.805   5.473   4.870 -2.3716 -1.5683  1.2203
    2DOPC  H16S  222   2.892   5.380   4.996  1.4760 -2.3492 -0.8679
    2DOPC  C217  223   2.751   5.264   4.878  0.2598 -0.1884  0.3298
    2DOPC  H17R  224   2.796   5.167   4.911  3.3831  1.3749  1.0112
    2DOPC  H17S  225   2.714   5.255   4.774 -0.2869 -0.5867  0.5481
    2DOPC  C218  226   2.632   5.297   4.974 -0.2190  0.1133 -0.3041
    2DOPC  H18R  227   2.608   5.405   4.973  0.0390  0.3594  4.0570
    2DOPC  H18S  228   2.645   5.279   5.083 -0.2812  2.1874  0.0822
    2DOPC  H18T  229   2.543   5.237   4.945 -1.8506  1.6623  1.2918
    2DOPC   C33  230   3.451   4.546   5.312  0.3336  0.6239  0.6637
    2DOPC   H3X  231   3.438   4.438   5.331  1.0198  0.5932  0.9629
    2DOPC   H3Y  232   3.476   4.600   5.406 -5.8195  3.4418  1.2144
    2DOPC   C34  233   3.558   4.561   5.206  0.2167  0.2723 -0.3394
    2DOPC   H4X  234   3.551   4.666   5.171 -2.4899  0.2462 -0.1283
    2DOPC   H4Y  235   3.529   4.498   5.118  0.9205  0.6072 -0.8194
    2DOPC   C35  236   3.707   4.535   5.241 -0.0845  0.1464  0.7156
    2DOPC   H5X  237   3.714   4.438   5.295 -0.5609  0.3843  1.2193
    2DOPC   H5Y  238   3.747   4.616   5.306  0.0343  1.1730 -0.5983
    2DOPC   C36  239   3.793   4.513   5.113 -0.1598 -0.1472 -0.8118
    2DOPC   H6X  240   3.890   4.467   5.139 -0.4430 -1.5449 -2.0872
    2DOPC   H6Y  241   3.752   4.425   5.060 -2.3493 -0.8090  1.7562
    2DOPC   C37  242   3.806   4.642   5.030  0.0259  0.3020 -0.0510
    2DOPC   H7X  243   3.702   4.672   5.006 -0.2255 -0.6422 -0.1991
    2DOPC   H7Y  244   3.851   4.716   5.099 -0.5395 -0.4623  1.1790
    2DOPC   C38  245   3.896   4.631   4.910  0.2509 -0.1032  0.2237
    2DOPC   H8X  246   3.997   4.593   4.936 -0.2626 -0.1923  2.2021
    2DOPC   H8Y  247   3.897   4.738   4.880 -2.0862  0.6828  2.5503
    2DOPC   C39  248   3.830   4.547   4.793 -0.7548 -0.5498  0.1095
    2DOPC   H9X  249   3.841   4.438   4.804 -0.1312 -0.7119 -1.7983
    2DOPC  C310  250   3.781   4.596   4.681  0.3696 -0.4958  0.6095
    2DOPC  H10X  251   3.739   4.529   4.605 -1.8350  2.3917 -0.9292
    2DOPC  C311  252   3.759   4.740   4.650  0.2721  0.0286  0.4426
    2DOPC  H11X  253   3.854   4.796   4.664 -0.2801  0.5464  2.4289
    2DOPC  H11Y  254   3.693   4.790   4.724  2.1702  2.8673  0.3661
    2DOPC  C312  255   3.693   4.763   4.509  0.7863 -0.1327  0.5351
    2DOPC  H12X  256   3.604   4.698   4.496  0.3187  0.7819 -1.0649
    2DOPC  H12Y  257   3.765   4.756   4.425  1.1099  0.6758  0.7292
    2DOPC  C313  258   3.639   4.913   4.498 -0.3877  0.6560 -0.6073
    2DOPC  H13X  259   3.575   4.936   4.586 -0.9370  3.7675 -1.6965
    2DOPC  H13Y  260   3.723   4.986   4.496  0.5374 -0.3599 -3.3151
    2DOPC  C314  261   3.554   4.932   4.368  0.9725 -0.1906 -0.0935
    2DOPC  H14X  262   3.548   4.847   4.298 -2.9749 -1.2072  1.2331
    2DOPC  H14Y  263   3.448   4.955   4.390  0.6928 -1.2394 -0.3213
    2DOPC  C315  264   3.600   5.060   4.292  0.3927  0.5514  0.3271
    2DOPC  H15X  265   3.533   5.064   4.203  0.3292 -1.9954  0.1893
    2DOPC  H15Y  266   3.701   5.036   4.253  0.1720 -1.0067  0.6282
    2DOPC  C316  267   3.571   5.175   4.384  0.0715  0.4500  0.2116
    2DOPC  H16X  268   3.461   5.181   4.404  0.1798  1.9888  0.4641
    2DOPC  H16Y  269   3.624   5.156   4.479 -1.2793  1.7416  1.2644
    2DOPC  C317  270   3.619   5.309   4.323  0.0323  0.5401 -0.2252
    2DOPC  H17X  271   3.598   5.303   4.214 -0.2979  0.3176 -0.1521
    2DOPC  H17Y  272   3.561   5.396   4.360 -0.7368 -0.5151  1.1487
    2DOPC  C318  273   3.773   5.321   4.326  0.1674 -0.5136 -0.3210
    2DOPC  H18X  274   3.826   5.228   4.298 -1.1181 -1.1764 -0.6135
    2DOPC  H18Y  275   3.808   5.399   4.255  1.5750 -1.7911 -1.0941
    2DOPC  H18Z  276   3.811   5.349   4.427 -2.2084 -2.4787  1.2411
    3DOPC     N  277   4.234   8.715   6.493 -0.9772  0.3621  0.6742
    3DOPC   C12  278   4.170   8.595   6.416 -0.4777 -0.3240  0.5542
    3DOPC  H12A  279   4.103   8.538   6.479  0.6134 -1.0856  1.0502
    3DOPC  H12B  280   4.250   8.523   6.413  0.9858  1.2811 -0.0795
    3DOPC   C13  281   4.349   8.772   6.424 -0.4999 -1.0136  0.2073
    3DOPC  H13A  282   4.439   8.713   6.439  1.3575  1.7683  0.7278
    3DOPC  H13B  283   4.323   8.777   6.319  0.7773 -0.1128 -0.0902
    3DOPC  H13C  284   4.362   8.873   6.458  0.0053 -1.5932  1.8685
    3DOPC   C14  285   4.293   8.665   6.623  0.6370  0.2698 -0.1088
    3DOPC  H14A  286   4.211   8.638   6.688  0.7213 -0.7373 -0.3993
    3DOPC  H14B  287   4.354   8.578   6.605  1.0957  0.4655  0.4994
    3DOPC  H14C  288   4.359   8.735   6.671  0.7248 -0.8188  1.4278
    3DOPC   C15  289   4.128   8.815   6.512  0.0202  0.1322  0.2092
    3DOPC  H15A  290   4.172   8.909   6.542  1.6869 -0.1637 -1.1693
    3DOPC  H15B  291   4.048   8.800   6.583 -0.4846  0.8015 -0.1963
    3DOPC  H15C  292   4.077   8.826   6.417 -0.9152  1.1885  0.8074
    3DOPC   C11  293   4.120   8.616   6.268 -0.6333  0.5387 -0.7400
    3DOPC  H11A  294   4.059   8.530   6.235  0.9800 -0.1353 -2.1277
    3DOPC  H11B  295   4.039   8.692   6.264 -0.9935  0.0979 -2.5721
    3DOPC     P  296   4.293   8.526   6.102  0.0476 -0.2221 -0.2165
    3DOPC   O13  297   4.278   8.403   6.179  0.0514  0.6254  0.1420
    3DOPC   O14  298   4.430   8.555   6.044  0.2986  0.2347  0.0183
    3DOPC   O12  299   4.237   8.646   6.189 -0.1796 -0.1739  0.3545
    3DOPC   O11  300   4.191   8.527   5.985  0.2677 -0.3051 -0.0856
    3DOPC    C1  301   4.153   8.654   5.924 -0.8551 -0.3907 -0.0868
    3DOPC    HA  302   4.240   8.724   5.919 -1.8135  0.8009 -0.5005
    3DOPC    HB  303   4.071   8.700   5.982  0.1008 -1.1576  1.9718
    3DOPC    C2  304   4.100   8.637   5.774 -0.0941 -0.3082  0.2641
    3DOPC    HS  305   4.070   8.736   5.733  1.8989 -0.1971 -1.0674
    3DOPC   O21  306   3.995   8.548   5.764  0.4172  0.3131  0.2586
    3DOPC   C21  307   3.873   8.599   5.805 -0.5128  0.5960 -0.1068
    3DOPC   O22  308   3.869   8.707   5.861 -0.2440 -0.1236  0.1376
    3DOPC   C22  309   3.757   8.503   5.785 -0.2280  0.0206  0.2122
    3DOPC   H2R  310   3.679   8.567   5.832 -1.3703 -1.7132  0.7732
    3DOPC   H2S  311   3.768   8.419   5.857 -0.5046 -0.4283 -0.2684
    3DOPC    C3  312   4.215   8.596   5.687 -0.3637 -0.0095 -0.3629
    3DOPC    HX  313   4.268   8.509   5.733 -1.1390  0.0009  0.5725
    3DOPC    HY  314   4.290   8.678   5.686 -1.6677  1.2010 -0.1912
    3DOPC   O31  315   4.172   8.570   5.554  0.0483  0.0545  0.2160
    3DOPC   C31  316   4.152   8.453   5.510  0.5144 -0.2869 -0.0028
    3DOPC   O32  317   4.172   8.347   5.564 -0.4099  0.8660 -0.5398
    3DOPC   C32  318   4.109   8.465   5.359  0.0916  0.0268  0.8131
    3DOPC   H2X  319   4.019   8.527   5.339  1.1371  0.3298 -4.8244
    3DOPC   H2Y  320   4.193   8.516   5.306  0.3675 -2.6757 -1.5809
    3DOPC   C23  321   3.724   8.465   5.641 -0.0156 -0.5015  0.2484
    3DOPC   H3R  322   3.807   8.408   5.593  0.4148  0.6120 -0.3562
    3DOPC   H3S  323   3.714   8.552   5.573  1.5839 -0.3630  0.1449
    3DOPC   C24  324   3.590   8.389   5.620 -0.0622 -0.1890 -0.2019
    3DOPC   H4R  325   3.510   8.434   5.682 -0.8293  0.7752 -1.8408
    3DOPC   H4S  326   3.600   8.291   5.672 -0.0729 -0.3581 -0.5103
    3DOPC   C25  327   3.545   8.374   5.473 -0.3320 -0.5262  0.0993
    3DOPC   H5R  328   3.497   8.468   5.439  2.0650 -0.1990 -2.7777
    3DOPC   H5S  329   3.469   8.293   5.474 -0.7025 -0.1834  1.1081
    3DOPC   C26  330   3.655   8.334   5.377 -0.1927  0.5757  0.6117
    3DOPC   H6R  331   3.709   8.242   5.410 -1.0579 -1.8214 -3.7832
    3DOPC   H6S  332   3.740   8.405   5.372  2.8160 -2.7265  1.1759
    3DOPC   C27  333   3.606   8.296   5.236 -0.1296  0.4548  0.5400
    3DOPC   H7R  334   3.542   8.382   5.208 -3.5836 -2.4375 -1.2581
    3DOPC   H7S  335   3.537   8.210   5.237 -1.9342  1.7814 -1.4665
    3DOPC   C28  336   3.720   8.262   5.134 -0.0895 -0.1479  0.5180
    3DOPC   H8R  337   3.794   8.185   5.163  1.5758  1.6271  1.2403
    3DOPC   H8S  338   3.779   8.356   5.125  1.4430 -1.0140  1.0568
    3DOPC   C29  339   3.664   8.223   4.997  0.1193  0.0057 -0.2436
    3DOPC   H9R  340   3.655   8.311   4.933  0.3540 -0.6844 -1.2508
    3DOPC  C210  341   3.650   8.098   4.951  0.2167  0.0245 -0.7260
    3DOPC  H10R  342   3.623   8.095   4.845 -0.2712  3.6818 -0.8414
    3DOPC  C211  343   3.669   7.967   5.021 -0.8627  0.4689  0.5029
    3DOPC  H11R  344   3.585   7.897   5.002  0.5320 -1.0053 -0.4544
    3DOPC  H11S  345   3.669   7.974   5.132 -0.1845  0.4804  0.5081
    3DOPC  C212  346   3.801   7.900   4.968 -0.6196  0.6011  0.1337
    3DOPC  H12R  347   3.807   7.806   5.027 -0.3280  1.0670  0.8625
    3DOPC  H12S  348   3.885   7.967   4.997  1.0928 -0.7070 -1.5505
    3DOPC  C213  349   3.793   7.878   4.819 -0.4288 -0.3874  0.4077
    3DOPC  H13R  350   3.827   7.973   4.772 -1.4363  1.3445  2.9724
    3DOPC  H13S  351   3.688   7.868   4.784 -0.5032 -0.8758  0.7524
    3DOPC  C214  352   3.887   7.774   4.750 -0.1062 -0.0438  0.3828
    3DOPC  H14R  353   3.835   7.676   4.757 -0.0266 -0.3557 -2.4163
    3DOPC  H14S  354   3.992   7.774   4.784  0.0660 -1.4198 -0.0950
    3DOPC  C215  355   3.900   7.809   4.598 -0.6061 -0.4130  0.2652
    3DOPC  H15R  356   3.802   7.835   4.551 -0.1308  0.3159 -0.3509
    3DOPC  H15S  357   3.938   7.716   4.549  0.0566  0.4415 -0.8884
    3DOPC  C216  358   4.010   7.923   4.570 -0.1153 -0.0347 -0.9649
    3DOPC  H16R  359   4.104   7.891   4.619  0.5087  0.2637 -1.9453
    3DOPC  H16S  360   3.980   8.021   4.613 -0.3538 -1.2726  1.8802
    3DOPC  C217  361   4.051   7.922   4.424 -0.3111 -0.1562 -0.1031
    3DOPC  H17R  362   4.076   7.822   4.382  0.3387 -1.0167  2.1528
    3DOPC  H17S  363   4.144   7.982   4.415 -0.3990 -0.1801 -1.2684
    3DOPC  C218  364   3.950   7.998   4.329 -0.4363 -0.2948 -0.5161
    3DOPC  H18R  365   3.850   7.948   4.323 -0.3796 -0.4839 -6.9274
    3DOPC  H18S  366   3.991   8.009   4.226  1.7338  0.6585  0.3910
    3DOPC  H18T  367   3.948   8.104   4.362  3.9315 -0.8773  2.3317
    3DOPC   C33  368   4.081   8.335   5.282 -0.3648 -0.0532  0.3493
    3DOPC   H3X  369   4.032   8.363   5.186  1.5855  0.2563 -0.6132
    3DOPC   H3Y  370   4.005   8.286   5.347  0.8022 -1.5349  0.6359
    3DOPC   C34  371   4.199   8.249   5.237  0.9012  0.0212 -0.2774
    3DOPC   H4X  372   4.243   8.201   5.327  1.8177 -0.2215 -0.8483
    3DOPC   H4Y  373   4.270   8.315   5.183 -0.4211  1.9956  0.2709
    3DOPC   C35  374   4.155   8.138   5.135 -0.0324  0.0110  0.0709
    3DOPC   H5X  375   4.109   8.188   5.047  2.6873  1.1023 -0.8328
    3DOPC   H5Y  376   4.074   8.077   5.180  0.3466 -0.9181 -0.4836
    3DOPC   C36  377   4.282   8.066   5.084  0.3435  0.1693  0.2469
    3DOPC   H6X  378   4.334   8.133   5.013  0.8887 -1.6335 -1.1495
    3DOPC   H6Y  379   4.344   8.039   5.172 -1.2665 -2.3194  0.7326
    3DOPC   C37  380   4.248   7.927   5.013 -0.0762 -0.3903 -0.0967
    3DOPC   H7X  381   4.194   7.857   5.079 -1.4133  0.6026 -0.0772
    3DOPC   H7Y  382   4.183   7.946   4.925  0.1356  0.4129 -0.0906
    3DOPC   C38  383   4.368   7.850   4.955  0.0145  0.4834 -0.7426
    3DOPC   H8X  384   4.429   7.801   5.034  0.2973  0.1123 -1.1833
    3DOPC   H8Y  385   4.432   7.926   4.905 -0.7954 -0.2732 -3.1054
    3DOPC   C39  386   4.336   7.731   4.864  0.1647  0.1419  0.1890
    3DOPC   H9X  387   4.281   7.649   4.914 -3.2977  0.9216 -1.9843
    3DOPC  C310  388   4.353   7.715   4.734  0.5516 -0.1491  0.5938
    3DOPC  H10X  389   4.306   7.629   4.685 -0.8311  1.0062 -0.2017
    3DOPC  C311  390   4.426   7.807   4.638 -0.1209  0.2773  0.6039
    3DOPC  H11X  391   4.535   7.810   4.661 -0.2581  2.8918  1.2480
    3DOPC  H11Y  392   4.384   7.909   4.652 -0.6285  0.5491 -2.2956
    3DOPC  C312  393   4.397   7.789   4.488 -0.3189  0.0834 -0.6933
    3DOPC  H12X  394   4.425   7.888   4.445  2.2868 -0.9714 -1.5896
    3DOPC  H12Y  395   4.290   7.760   4.490 -0.0139 -1.2520  2.4636
    3DOPC  C313  396   4.481   7.674   4.426  0.7641  0.6015  0.4016
    3DOPC  H13X  397   4.587   7.697   4.405  0.5498  2.7053  1.3083
    3DOPC  H13Y  398   4.479   7.594   4.503  0.3989 -1.7205 -1.8764
    3DOPC  C314  399   4.418   7.625   4.290  0.1766  0.3675 -0.6293
    3DOPC  H14X  400   4.401   7.706   4.215 -0.3154  0.0891 -0.8212
    3DOPC  H14Y  401   4.499   7.561   4.249  1.2970  1.1632  0.2574
    3DOPC  C315  402   4.282   7.556   4.302 -0.1710 -0.2970 -0.0633
    3DOPC  H15X  403   4.215   7.644   4.310  1.0915  0.8949 -1.9826
    3DOPC  H15Y  404   4.288   7.495   4.395  1.3066 -1.0279 -0.6097
    3DOPC  C316  405   4.239   7.474   4.179  0.0089 -0.3972 -0.3651
    3DOPC  H16X  406   4.203   7.553   4.109 -0.0981 -1.1879 -1.2088
    3DOPC  H16Y  407   4.330   7.427   4.135  0.5175  0.0339  0.2000
    3DOPC  C317  408   4.132   7.370   4.225 -0.7545 -0.2133 -0.4368
    3DOPC  H17X  409   4.170   7.297   4.300 -0.2163  0.7636  0.2628
    3DOPC  H17Y  410   4.057   7.428   4.282  1.7613  1.6441  1.2064
    3DOPC  C318  411   4.058   7.307   4.105  0.4632 -0.8424 -0.5603
    3DOPC  H18X  412   4.128   7.265   4.030 -0.3005  0.3459 -1.9976
    3DOPC  H18Y  413   3.976   7.239   4.136 -1.7611 -0.0611 -4.1517
    3DOPC  H18Z  414   4.002   7.392   4.061 -0.4155  0.4941  2.8282
    4DOPC     N  415   4.925  10.134   6.346 -0.4800  0.1916  0.0641
    4DOPC   C12  416   4.781  10.163   6.370 -0.5946  0.5265  0.9228
    4DOPC  H12A  417   4.765  10.269   6.354  0.1010  0.1745 -3.4082
    4DOPC  H12B  418   4.763  10.136   6.473  0.6642  1.0422  1.3050
    4DOPC   C13  419   4.965   9.998   6.369 -0.0108 -0.1265 -0.2448
    4DOPC  H13A  420   4.960   9.970   6.473 -0.2936  2.1995  0.4195
    4DOPC  H13B  421   4.890   9.937   6.319 -0.8312  1.3732 -0.9238
    4DOPC  H13C  422   5.063   9.970   6.335  0.4427 -1.9389  2.3096
    4DOPC   C14  423   5.002  10.212   6.454  0.5839 -0.1215 -0.2715
    4DOPC  H14A  424   4.969  10.184   6.553  2.8733 -0.1970  0.5284
    4DOPC  H14B  425   5.109  10.199   6.445  0.5135 -0.5172 -0.5645
    4DOPC  H14C  426   4.993  10.319   6.444  2.3420  0.1683  0.8240
    4DOPC   C15  427   4.962  10.193   6.210 -0.0179  0.1989 -0.2991
    4DOPC  H15A  428   5.057  10.146   6.185 -1.2272 -1.0905 -2.8414
    4DOPC  H15B  429   4.974  10.299   6.223 -0.2810  0.0262  1.7007
    4DOPC  H15C  430   4.887  10.158   6.142  0.1545 -2.0900  0.5924
    4DOPC   C11  431   4.677  10.091   6.275  0.2123 -0.3964  0.2334
    4DOPC  H11A  432   4.577  10.112   6.318  0.2005  1.1537 -0.4864
    4DOPC  H11B  433   4.679  10.142   6.177 -0.0339  1.2995  1.0803
    4DOPC     P  434   4.712   9.888   6.118 -0.1563  0.4630 -0.5064
    4DOPC   O13  435   4.578   9.886   6.051 -0.0848 -0.0787  0.2729
    4DOPC   O14  436   4.783   9.754   6.141 -0.0502 -0.1098  0.2584
    4DOPC   O12  437   4.693   9.953   6.263  0.3043  0.2269 -0.1984
    4DOPC   O11  438   4.796   9.991   6.023  0.5974  0.1357 -0.1475
    4DOPC    C1  439   4.925   9.936   5.988 -0.4261  0.2523 -0.1399
    4DOPC    HA  440   4.922   9.836   5.942 -1.5542 -0.0073  0.4634
    4DOPC    HB  441   4.982   9.933   6.084 -0.6651  1.8615  0.0962
    4DOPC    C2  442   4.998  10.021   5.887 -0.0773  0.5207  0.5904
    4DOPC    HS  443   5.020  10.117   5.940 -1.3529  1.1904 -0.0395
    4DOPC   O21  444   4.920  10.037   5.764  0.2244  0.0709 -0.3969
    4DOPC   C21  445   4.849  10.149   5.748  0.3753 -0.4555 -0.0182
    4DOPC   O22  446   4.839  10.240   5.826 -0.3374 -0.0756 -0.2291
    4DOPC   C22  447   4.785  10.147   5.608 -0.3167  0.5714 -0.0447
    4DOPC   H2R  448   4.768  10.043   5.572  3.5867 -1.2635  2.6947
    4DOPC   H2S  449   4.865  10.191   5.544  0.2724  1.3702  1.1956
    4DOPC    C3  450   5.138   9.954   5.856  0.0357  0.1663 -0.1121
    4DOPC    HX  451   5.121   9.859   5.801 -0.6075  0.3512 -0.2335
    4DOPC    HY  452   5.187   9.925   5.952  0.4146 -1.5375 -0.7975
    4DOPC   O31  453   5.225  10.032   5.781  0.1126 -0.3396 -0.0033
    4DOPC   C31  454   5.258  10.157   5.809  0.3329  0.6738 -0.1024
    4DOPC   O32  455   5.250  10.208   5.919 -0.0567 -0.0200  0.0392
    4DOPC   C32  456   5.316  10.219   5.683 -0.0447  0.2095  0.6034
    4DOPC   H2X  457   5.272  10.321   5.672  0.2036  0.5019  2.0489
    4DOPC   H2Y  458   5.426  10.229   5.694  0.1216 -0.9613  0.0872
    4DOPC   C23  459   4.664  10.234   5.610  0.1472 -0.4027 -0.4262
    4DOPC   H3R  460   4.685  10.342   5.626 -1.0075 -0.5359  2.5553
    4DOPC   H3S  461   4.600  10.191   5.690 -0.1476 -1.3383 -1.1437
    4DOPC   C24  462   4.587  10.206   5.485 -0.9343  0.1292 -0.3272
    4DOPC   H4R  463   4.491  10.256   5.510 -1.0819  0.1284 -0.8887
    4DOPC   H4S  464   4.572  10.096   5.474 -0.2644 -0.0697  0.6743
    4DOPC   C25  465   4.645  10.258   5.358  0.0565 -0.0251  0.4521
    4DOPC   H5R  466   4.750  10.231   5.333 -0.2399 -0.6121 -0.2048
    4DOPC   H5S  467   4.641  10.369   5.365  0.2323  0.1700 -1.7190
    4DOPC   C26  468   4.569  10.211   5.235 -0.1833 -0.4425  0.4846
    4DOPC   H6R  469   4.458  10.214   5.245 -0.3843 -1.4116 -1.1137
    4DOPC   H6S  470   4.593  10.105   5.208  2.3693 -0.1895  1.4852
    4DOPC   C27  471   4.612  10.309   5.117  0.5747 -0.1465  0.6100
    4DOPC   H7R  472   4.723  10.309   5.113  0.5487 -0.5998 -0.4218
    4DOPC   H7S  473   4.585  10.412   5.149 -1.4950 -0.0059 -1.3576
    4DOPC   C28  474   4.540  10.279   4.981  0.5082 -0.4046 -0.2360
    4DOPC   H8R  475   4.564  10.176   4.946  0.6895  0.1993 -2.0108
    4DOPC   H8S  476   4.588  10.334   4.897 -0.2995  0.1221 -0.3601
    4DOPC   C29  477   4.389  10.308   4.975  0.3883 -0.5909  0.7576
    4DOPC   H9R  478   4.341  10.334   5.070 -0.1312 -2.0562  0.9282
    4DOPC  C210  479   4.312  10.296   4.865  0.1635 -0.3727 -0.1055
    4DOPC  H10R  480   4.209  10.335   4.866  0.3239  0.0958  1.2818
    4DOPC  C211  481   4.367  10.271   4.721  0.4609  0.3449  0.4646
    4DOPC  H11R  482   4.410  10.169   4.708  0.0498  0.0228  1.4483
    4DOPC  H11S  483   4.435  10.354   4.694  2.7669  0.4253  5.3723
    4DOPC  C212  484   4.259  10.264   4.609  0.2496 -0.8689  0.4414
    4DOPC  H12R  485   4.197  10.180   4.647  0.6645 -1.0078  0.8247
    4DOPC  H12S  486   4.313  10.237   4.516  0.7920  1.7268 -0.0848
    4DOPC  C213  487   4.185  10.398   4.579  0.0438 -0.0006  0.4180
    4DOPC  H13R  488   4.261  10.477   4.562 -0.9168  0.6718 -0.9263
    4DOPC  H13S  489   4.114  10.429   4.658 -1.2894  0.9862 -1.1018
    4DOPC  C214  490   4.098  10.387   4.450 -0.4245  0.2563 -0.1726
    4DOPC  H14R  491   4.030  10.299   4.454  2.1242 -1.8695 -1.1903
    4DOPC  H14S  492   4.160  10.382   4.358 -0.2697  2.3887 -0.2432
    4DOPC  C215  493   4.003  10.502   4.417 -0.1487  0.0793 -1.0257
    4DOPC  H15R  494   4.072  10.589   4.425  0.6291 -0.4869 -1.4001
    4DOPC  H15S  495   3.923  10.508   4.494 -1.0359 -1.1336 -1.8197
    4DOPC  C216  496   3.944  10.482   4.280  0.3182 -0.4561  0.0551
    4DOPC  H16R  497   3.889  10.386   4.280 -0.7602  0.1197 -1.5636
    4DOPC  H16S  498   4.022  10.472   4.202  1.8336 -2.3607  1.7266
    4DOPC  C217  499   3.842  10.600   4.243  0.8173 -0.3621 -1.0449
    4DOPC  H17R  500   3.908  10.688   4.227 -0.6794  0.8244 -0.8984
    4DOPC  H17S  501   3.780  10.620   4.333 -2.0695  0.1381 -3.0039
    4DOPC  C218  502   3.771  10.575   4.118  0.1893  0.9975 -0.1482
    4DOPC  H18R  503   3.685  10.504   4.123  0.7815  0.2752  0.1166
    4DOPC  H18S  504   3.841  10.534   4.042  0.6791 -1.2097  1.3722
    4DOPC  H18T  505   3.736  10.665   4.064  0.4685  0.6709 -0.8948
    4DOPC   C33  506   5.293  10.144   5.549 -0.2141 -0.0226  0.4140
    4DOPC   H3X  507   5.184  10.128   5.545 -0.1449 -0.6581  0.7795
    4DOPC   H3Y  508   5.350  10.048   5.560 -0.9250 -0.3089  1.8963
    4DOPC   C34  509   5.341  10.226   5.430  0.6915  0.1865  0.1742
    4DOPC   H4X  510   5.440  10.268   5.455  0.2209  0.7530  1.1239
    4DOPC   H4Y  511   5.275  10.309   5.398  1.4743  1.2650  1.2857
    4DOPC   C35  512   5.354  10.140   5.304 -0.3554  0.3942 -0.1085
    4DOPC   H5X  513   5.257  10.130   5.252 -0.0487  2.1743 -1.0942
    4DOPC   H5Y  514   5.390  10.039   5.336 -1.1708 -0.0283 -0.4918
    4DOPC   C36  515   5.464  10.183   5.201 -0.2014 -0.3221 -0.0987
    4DOPC   H6X  516   5.430  10.280   5.160  1.9709 -0.2700 -1.9850
    4DOPC   H6Y  517   5.562  10.206   5.247  0.2589 -0.9392 -0.7470
    4DOPC   C37  518   5.476  10.078   5.091  0.2172  0.3099  0.2033
    4DOPC   H7X  519   5.518   9.982   5.128  1.6947  0.8387 -0.0462
    4DOPC   H7Y  520   5.375  10.060   5.049  0.8697  0.9757 -1.7839
    4DOPC   C38  521   5.562  10.122   4.967 -0.4810 -0.0367 -0.3744
    4DOPC   H8X  522   5.651  10.180   5.000 -1.7349  1.4171  0.6276
    4DOPC   H8Y  523   5.496  10.194   4.913 -0.3379  1.3613  1.2136
    4DOPC   C39  524   5.587  10.001   4.879  0.0013  0.4702  1.4495
    4DOPC   H9X  525   5.671   9.937   4.909 -0.9311 -2.0828 -0.8806
    4DOPC  C310  526   5.525   9.952   4.773  0.4818 -0.1499 -0.0018
    4DOPC  H10X  527   5.572   9.867   4.721  1.7108 -0.2002  1.1436
    4DOPC  C311  528   5.412  10.023   4.705 -0.1174 -0.3687 -0.2292
    4DOPC  H11X  529   5.360  10.073   4.790 -1.4774 -0.2542 -1.0975
    4DOPC  H11Y  530   5.342   9.952   4.655 -1.0606  0.8948 -0.7780
    4DOPC  C312  531   5.461  10.129   4.603  0.0255  0.0748 -0.6821
    4DOPC  H12X  532   5.521  10.060   4.540  0.2617 -2.9537  2.5446
    4DOPC  H12Y  533   5.540  10.201   4.635  0.0230 -0.9899  1.8983
    4DOPC  C313  534   5.337  10.180   4.527  0.1162 -0.4175  0.6218
    4DOPC  H13X  535   5.269  10.096   4.501 -0.2699  0.0425  0.1329
    4DOPC  H13Y  536   5.277  10.251   4.588  1.0624 -0.6586  1.8797
    4DOPC  C314  537   5.369  10.247   4.386  0.6633  0.8231 -0.0022
    4DOPC  H14X  538   5.446  10.325   4.401  2.5209 -1.0334  0.7726
    4DOPC  H14Y  539   5.409  10.170   4.316 -0.4131  0.0817  0.1619
    4DOPC  C315  540   5.248  10.324   4.323 -0.0641  0.2069  0.3745
    4DOPC  H15X  541   5.286  10.365   4.227 -0.3751  0.2850  0.2826
    4DOPC  H15Y  542   5.226  10.423   4.369  3.0006  0.8868  0.5659
    4DOPC  C316  543   5.110  10.256   4.296  0.0967  0.0205  0.0821
    4DOPC  H16X  544   5.124  10.147   4.310 -1.0733 -0.0007  1.2674
    4DOPC  H16Y  545   5.039  10.272   4.380  1.0228  2.1633  0.5429
    4DOPC  C317  546   5.043  10.297   4.165  0.0226 -0.6245 -0.7795
    4DOPC  H17X  547   5.020  10.406   4.165 -0.5953 -0.7177  1.2504
    4DOPC  H17Y  548   5.110  10.287   4.077 -0.3497  2.2668 -1.4948
    4DOPC  C318  549   4.910  10.222   4.126  0.0223 -0.3900  0.2449
    4DOPC  H18X  550   4.936  10.124   4.082 -1.3675 -1.1503  1.0447
    4DOPC  H18Y  551   4.851  10.194   4.216 -0.3881 -2.2254 -0.5442
    4DOPC  H18Z  552   4.843  10.283   4.060 -1.0477  0.3181  1.9162
    5DOPC     N  553   7.869  11.815   6.900 -0.2536 -0.0765  1.0872
    5DOPC   C12  554   7.965  11.889   6.806  0.6022  0.5166  0.2979
    5DOPC  H12A  555   8.018  11.960   6.867 -0.7641  0.0057  2.2138
    5DOPC  H12B  556   7.911  11.947   6.733  1.8853  2.0133  0.4824
    5DOPC   C13  557   7.797  11.916   6.984 -0.1354 -0.7353 -0.0790
    5DOPC  H13A  558   7.725  11.974   6.928  1.3875  1.0136 -0.3336
    5DOPC  H13B  559   7.725  11.876   7.054 -2.4029  0.6090 -1.4801
    5DOPC  H13C  560   7.859  11.976   7.049  0.2967  1.1476 -2.0992
    5DOPC   C14  561   7.933  11.713   6.989 -0.5053  0.0258  0.2573
    5DOPC  H14A  562   8.012  11.754   7.050  1.5535 -1.7796 -1.0298
    5DOPC  H14B  563   7.859  11.669   7.054 -0.7209 -2.0190 -1.2679
    5DOPC  H14C  564   7.982  11.634   6.934  0.3384  0.4641  0.3597
    5DOPC   C15  565   7.766  11.733   6.822 -0.3488 -0.0320  0.2608
    5DOPC  H15A  566   7.685  11.689   6.879  0.3783 -0.8391  0.7007
    5DOPC  H15B  567   7.813  11.658   6.761  0.7581  0.2391  0.7600
    5DOPC  H15C  568   7.708  11.791   6.752 -0.5324 -0.9653 -0.3758
    5DOPC   C11  569   8.055  11.803   6.717 -0.6046 -0.7245  0.6498
    5DOPC  H11A  570   8.128  11.866   6.662  0.3440 -0.1727  2.4533
    5DOPC  H11B  571   8.113  11.729   6.777 -0.4743 -0.7676  0.4683
    5DOPC     P  572   8.006  11.608   6.544  0.2877  0.0389  0.2394
    5DOPC   O13  573   7.960  11.496   6.632 -0.3986 -0.8325  0.1669
    5DOPC   O14  574   8.145  11.606   6.502 -0.0316  1.1019  0.8915
    5DOPC   O12  575   7.966  11.746   6.619  0.4923  0.8460 -0.4903
    5DOPC   O11  576   7.921  11.612   6.411  0.3159 -0.0449 -0.0357
    5DOPC    C1  577   7.791  11.671   6.406  0.0811 -0.9803  0.5037
    5DOPC    HA  578   7.754  11.702   6.506  0.2745  1.7326 -0.1980
    5DOPC    HB  579   7.719  11.591   6.378  1.3189 -2.4786  1.4172
    5DOPC    C2  580   7.779  11.786   6.296  0.5404  0.6297 -0.4060
    5DOPC    HS  581   7.675  11.804   6.260  0.6386  0.6465 -0.6780
    5DOPC   O21  582   7.849  11.746   6.179 -0.8824  0.0813 -0.5288
    5DOPC   C21  583   7.807  11.639   6.114  0.4374  0.4731 -0.1102
    5DOPC   O22  584   7.707  11.576   6.140 -0.1758  0.3295 -0.3577
    5DOPC   C22  585   7.904  11.617   5.999  0.7288 -0.2734  0.5411
    5DOPC   H2R  586   8.004  11.602   6.046  0.9323  0.9646  0.5361
    5DOPC   H2S  587   7.901  11.707   5.934 -0.0637 -1.2699 -0.8702
    5DOPC    C3  588   7.832  11.924   6.340  0.0182 -0.0386 -0.0731
    5DOPC    HX  589   7.926  11.896   6.393 -0.1612 -1.2106 -0.3619
    5DOPC    HY  590   7.762  11.982   6.404 -1.1019 -0.8953 -0.4956
    5DOPC   O31  591   7.873  12.012   6.236 -0.3043 -0.1085 -0.2069
    5DOPC   C31  592   7.779  12.056   6.148 -0.0034 -0.7041  0.0635
    5DOPC   O32  593   7.662  12.036   6.169  0.1941 -0.9971  0.1868
    5DOPC   C32  594   7.827  12.151   6.036 -0.0521  0.1323 -0.7966
    5DOPC   H2X  595   7.762  12.241   6.040 -0.6846 -0.3391 -0.0278
    5DOPC   H2Y  596   7.930  12.181   6.065 -0.0899  0.0554 -0.5812
    5DOPC   C23  597   7.865  11.513   5.900  0.4174  0.3765  0.3467
    5DOPC   H3R  598   7.779  11.542   5.836 -1.4507 -1.2899  1.9606
    5DOPC   H3S  599   7.830  11.418   5.945 -0.4255 -0.7994 -2.5143
    5DOPC   C24  600   7.983  11.474   5.806 -0.0072  0.0871  0.3407
    5DOPC   H4R  601   8.070  11.463   5.876 -0.5709 -1.9170  0.7887
    5DOPC   H4S  602   8.007  11.554   5.732  1.4019 -1.5612 -1.0758
    5DOPC   C25  603   7.973  11.335   5.730  0.5141  0.2367  0.6768
    5DOPC   H5R  604   7.974  11.260   5.812  2.3110 -2.0657 -1.3272
    5DOPC   H5S  605   8.067  11.321   5.673 -0.3731  0.7745 -0.9944
    5DOPC   C26  606   7.867  11.320   5.622 -0.2444 -0.1591 -0.4306
    5DOPC   H6R  607   7.856  11.410   5.557  0.9704  0.1815 -0.1910
    5DOPC   H6S  608   7.773  11.315   5.681  1.3130  1.2759  2.3713
    5DOPC   C27  609   7.894  11.188   5.542  0.2850 -0.2642 -0.3136
    5DOPC   H7R  610   7.938  11.118   5.617  0.1007 -1.5384 -1.3588
    5DOPC   H7S  611   7.952  11.196   5.448 -1.0084  0.8459 -1.0466
    5DOPC   C28  612   7.766  11.112   5.498 -0.0964 -0.3132  0.2346
    5DOPC   H8R  613   7.720  11.177   5.420  2.4346  1.4381  0.1013
    5DOPC   H8S  614   7.694  11.099   5.582 -0.6250 -1.5786 -0.3828
    5DOPC   C29  615   7.792  10.979   5.438 -0.7123  0.7424 -0.1909
    5DOPC   H9R  616   7.756  10.898   5.503  0.4691 -0.5942 -1.1522
    5DOPC  C210  617   7.843  10.946   5.320 -0.2441 -0.3032 -0.8734
    5DOPC  H10R  618   7.857  10.838   5.300  0.3210 -0.4098  0.0220
    5DOPC  C211  619   7.890  11.042   5.216 -0.0879  0.1899  0.5195
    5DOPC  H11R  620   7.996  11.022   5.190 -0.1244 -1.0308  1.2095
    5DOPC  H11S  621   7.870  11.146   5.250 -3.1951  0.0486 -0.4860
    5DOPC  C212  622   7.800  11.031   5.089  0.0471 -0.4347  0.0750
    5DOPC  H12R  623   7.702  11.070   5.125 -0.2777 -0.7120 -0.4865
    5DOPC  H12S  624   7.787  10.927   5.053 -0.1355  0.3016 -2.1488
    5DOPC  C213  625   7.850  11.119   4.973 -0.2982  0.3783 -0.5905
    5DOPC  H13R  626   7.954  11.088   4.948 -1.0771 -1.0065 -2.3185
    5DOPC  H13S  627   7.870  11.220   5.013  0.3602  0.8341 -2.0094
    5DOPC  C214  628   7.759  11.124   4.851  0.3504 -0.1207 -0.0723
    5DOPC  H14R  629   7.654  11.145   4.881  1.1887  2.5042  1.2648
    5DOPC  H14S  630   7.763  11.024   4.802  0.9310  0.0951 -0.4770
    5DOPC  C215  631   7.799  11.223   4.747 -0.6827  0.5265  0.5922
    5DOPC  H15R  632   7.804  11.324   4.794  0.9437  0.8084 -0.1205
    5DOPC  H15S  633   7.722  11.221   4.667  0.8560 -0.4035 -0.9220
    5DOPC  C216  634   7.937  11.189   4.694  0.0010  0.3469  0.6065
    5DOPC  H16R  635   7.935  11.090   4.645  4.6618  0.8106 -0.9828
    5DOPC  H16S  636   8.013  11.203   4.773  0.9508  0.0227 -0.2312
    5DOPC  C217  637   7.987  11.280   4.570  0.1768  0.0966  0.0349
    5DOPC  H17R  638   8.068  11.215   4.529  0.3908 -0.3677  1.1389
    5DOPC  H17S  639   8.024  11.380   4.601 -5.1261  2.5038 -0.2502
    5DOPC  C218  640   7.874  11.302   4.469 -0.1538  0.4786 -0.9141
    5DOPC  H18R  641   7.795  11.368   4.511  0.7628  0.6698  0.5956
    5DOPC  H18S  642   7.823  11.207   4.441  2.9357 -1.3331 -0.8631
    5DOPC  H18T  643   7.914  11.351   4.378 -0.4229 -0.5382 -1.6018
    5DOPC   C33  644   7.817  12.081   5.900 -0.3697 -0.3785  0.7197
    5DOPC   H3X  645   7.772  12.148   5.825  1.0023  1.3884  1.4111
    5DOPC   H3Y  646   7.733  12.009   5.916 -1.7507  1.0900  0.2928
    5DOPC   C34  647   7.941  12.015   5.850  0.6873 -0.0353  0.6679
    5DOPC   H4X  648   7.962  11.939   5.929  1.0178 -1.1845 -0.4912
    5DOPC   H4Y  649   8.031  12.077   5.832 -1.4927  2.3093 -3.6606
    5DOPC   C35  650   7.914  11.927   5.720 -0.2076 -0.7201  0.0379
    5DOPC   H5X  651   7.891  11.993   5.634  1.4451 -1.0752 -0.7278
    5DOPC   H5Y  652   7.822  11.867   5.737 -1.5497  0.6218 -1.9881
    5DOPC   C36  653   8.044  11.858   5.676  0.1861  0.3158 -0.2926
    5DOPC   H6X  654   8.113  11.944   5.664 -1.6698  1.9400  0.0870
    5DOPC   H6Y  655   8.080  11.796   5.761  0.3469  1.0295  0.1694
    5DOPC   C37  656   8.028  11.768   5.550 -0.0153 -0.2736 -0.6006
    5DOPC   H7X  657   7.937  11.709   5.575 -0.5599  1.3901  1.6135
    5DOPC   H7Y  658   8.001  11.833   5.463 -1.2017 -0.9122 -0.7281
    5DOPC   C38  659   8.151  11.682   5.521  0.0341 -0.7048 -0.4452
    5DOPC   H8X  660   8.127  11.636   5.423 -0.9292  0.2307 -0.6697
    5DOPC   H8Y  661   8.163  11.610   5.605  0.3918 -1.8336 -1.4370
    5DOPC   C39  662   8.285  11.761   5.513  0.5854 -0.6828  0.1378
    5DOPC   H9X  663   8.345  11.750   5.604  0.5871 -3.2066 -0.0998
    5DOPC  C310  664   8.333  11.827   5.408  0.3113 -0.0098  0.4963
    5DOPC  H10X  665   8.436  11.866   5.404  0.3871 -0.3114 -0.7634
    5DOPC  C311  666   8.272  11.843   5.279  0.1706  0.7462 -0.1655
    5DOPC  H11X  667   8.207  11.933   5.287 -0.2065  0.3383  1.5916
    5DOPC  H11Y  668   8.220  11.753   5.241  0.6356  1.9959 -4.3554
    5DOPC  C312  669   8.372  11.881   5.172 -0.1353 -0.5831 -0.1991
    5DOPC  H12X  670   8.440  11.797   5.145 -0.7299 -0.9241 -0.6617
    5DOPC  H12Y  671   8.422  11.971   5.215 -2.6401  0.2288  1.2026
    5DOPC  C313  672   8.304  11.927   5.046 -0.1647 -0.7368  0.2231
    5DOPC  H13X  673   8.225  11.855   5.016 -0.6746 -0.2646  0.4076
    5DOPC  H13Y  674   8.256  12.025   5.068 -0.8535 -0.8833 -0.5762
    5DOPC  C314  675   8.398  11.945   4.935  0.4568 -0.0170  0.4945
    5DOPC  H14X  676   8.482  12.017   4.949  0.0644  0.9675 -1.7388
    5DOPC  H14Y  677   8.440  11.851   4.895  1.2682  0.8374 -0.7530
    5DOPC  C315  678   8.318  12.000   4.818 -0.7916  0.4678 -0.2309
    5DOPC  H15X  679   8.239  12.077   4.829 -2.3434 -0.6914 -2.3538
    5DOPC  H15Y  680   8.261  11.911   4.783 -2.3153  1.4239 -0.2761
    5DOPC  C316  681   8.412  12.030   4.699  0.4680 -0.3699  0.9582
    5DOPC  H16X  682   8.476  12.118   4.719  1.4663 -0.9451  0.3783
    5DOPC  H16Y  683   8.488  11.950   4.684  1.8804  0.8408  1.4286
    5DOPC  C317  684   8.331  12.031   4.564  0.2607 -0.1482 -0.5745
    5DOPC  H17X  685   8.234  12.079   4.591 -0.1839 -1.3225 -0.0414
    5DOPC  H17Y  686   8.390  12.092   4.492 -0.4158 -2.0271 -2.8325
    5DOPC  C318  687   8.303  11.893   4.509  0.2715 -0.1771 -0.1969
    5DOPC  H18X  688   8.285  11.821   4.591  3.5460 -1.7484 -0.6941
    5DOPC  H18Y  689   8.212  11.884   4.447 -0.9851  1.1038  1.3660
    5DOPC  H18Z  690   8.392  11.860   4.452  1.2127 -0.2136  1.2253
    6DOPC     N  691   6.455  12.081   6.602  0.2652 -0.1895  0.2860
    6DOPC   C12  692   6.487  12.033   6.456  0.1917  0.0643 -0.1828
    6DOPC  H12A  693   6.568  11.965   6.475 -0.1984 -0.1920  0.5868
    6DOPC  H12B  694   6.498  12.123   6.397 -1.5279  0.8296  0.5891
    6DOPC   C13  695   6.410  11.966   6.689  0.5965 -0.3561 -0.0011
    6DOPC  H13A  696   6.373  12.009   6.782  1.2560  0.9451 -0.3050
    6DOPC  H13B  697   6.336  11.919   6.627 -1.2483  1.9091  0.3388
    6DOPC  H13C  698   6.477  11.882   6.701 -1.7326 -2.6263 -1.7898
    6DOPC   C14  699   6.343  12.182   6.592  0.1003 -0.2961  0.2233
    6DOPC  H14A  700   6.251  12.133   6.566 -0.7340  1.7443 -0.9146
    6DOPC  H14B  701   6.326  12.224   6.690 -2.1609  0.2621 -0.3518
    6DOPC  H14C  702   6.363  12.266   6.526 -0.6291 -1.9759 -2.2677
    6DOPC   C15  703   6.575  12.144   6.659  0.6074 -0.1913  0.0308
    6DOPC  H15A  704   6.653  12.070   6.670  0.2036 -0.5507  0.5788
    6DOPC  H15B  705   6.554  12.191   6.754 -0.7295 -0.7972  0.0583
    6DOPC  H15C  706   6.606  12.216   6.586  0.3355  0.8893  0.9508
    6DOPC   C11  707   6.379  11.959   6.379  0.4694  0.2537 -0.5018
    6DOPC  H11A  708   6.288  12.021   6.392 -0.3297 -0.9096 -0.4823
    6DOPC  H11B  709   6.394  11.949   6.269 -0.9411  0.7102 -0.7527
    6DOPC     P  710   6.475  11.723   6.438 -0.2161  0.6500  0.1818
    6DOPC   O13  711   6.419  11.588   6.466  0.6167  0.5117  0.1815
    6DOPC   O14  712   6.585  11.767   6.530  0.2239  0.1152  0.0892
    6DOPC   O12  713   6.360  11.829   6.444 -0.2288 -0.1170  0.2293
    6DOPC   O11  714   6.520  11.743   6.288  0.4549  0.1861 -0.2510
    6DOPC    C1  715   6.448  11.677   6.179  0.4294 -0.0400 -0.3519
    6DOPC    HA  716   6.337  11.683   6.183  0.3394 -0.9645 -0.9523
    6DOPC    HB  717   6.471  11.568   6.172 -1.3770 -0.5269  0.6521
    6DOPC    C2  718   6.490  11.736   6.048 -0.1385 -0.7439  0.3036
    6DOPC    HS  719   6.599  11.725   6.033 -0.2371  0.7452 -2.0890
    6DOPC   O21  720   6.448  11.872   6.050  0.2903  0.0102  0.3790
    6DOPC   C21  721   6.548  11.957   6.022 -0.1251 -0.3286 -0.3507
    6DOPC   O22  722   6.664  11.930   6.029 -0.0888  0.2036 -0.0103
    6DOPC   C22  723   6.481  12.079   5.963  0.0394  0.0902 -0.1252
    6DOPC   H2R  724   6.461  12.149   6.047 -1.8187  0.8236 -1.1051
    6DOPC   H2S  725   6.379  12.052   5.926  0.7494 -0.9389 -1.3911
    6DOPC    C3  726   6.427  11.666   5.928  0.3172 -0.3626 -0.1505
    6DOPC    HX  727   6.318  11.685   5.913  0.4856  1.5579  0.7837
    6DOPC    HY  728   6.421  11.555   5.936  0.6891 -0.2524  2.3841
    6DOPC   O31  729   6.485  11.717   5.805 -0.6177 -0.1318 -0.4388
    6DOPC   C31  730   6.592  11.659   5.764 -0.2631  0.0215 -0.0560
    6DOPC   O32  731   6.638  11.556   5.812  0.1203 -0.1719 -0.1276
    6DOPC   C32  732   6.641  11.718   5.630  0.4551 -0.7968  0.7078
    6DOPC   H2X  733   6.647  11.829   5.634 -1.7089 -0.5426 -1.2632
    6DOPC   H2Y  734   6.736  11.668   5.603  0.2512 -1.7111  1.6367
    6DOPC   C23  735   6.582  12.149   5.869  0.1529 -0.5361  0.2741
    6DOPC   H3R  736   6.673  12.159   5.931  0.3327  0.0112 -0.0760
    6DOPC   H3S  737   6.563  12.258   5.857  2.4493  0.0406  1.4233
    6DOPC   C24  738   6.587  12.077   5.736  0.0407 -0.2402 -0.4334
    6DOPC   H4R  739   6.487  12.070   5.688  0.1822 -1.0601 -0.6210
    6DOPC   H4S  740   6.612  11.970   5.753 -0.9093 -0.3394  0.5042
    6DOPC   C25  741   6.676  12.144   5.633 -0.0439 -0.4717  0.4651
    6DOPC   H5R  742   6.690  12.064   5.556 -0.2081 -2.1357  2.0970
    6DOPC   H5S  743   6.776  12.165   5.677 -0.0532 -0.5126  0.5045
    6DOPC   C26  744   6.621  12.270   5.571 -0.4234  0.8914  0.2416
    6DOPC   H6R  745   6.519  12.263   5.528 -0.6774 -1.0093  1.0490
    6DOPC   H6S  746   6.685  12.287   5.482  0.4363 -1.7145  0.2728
    6DOPC   C27  747   6.634  12.396   5.657  0.2324 -0.5361 -0.4683
    6DOPC   H7R  748   6.713  12.376   5.733  0.0463 -1.0768 -0.4076
    6DOPC   H7S  749   6.537  12.412   5.709 -0.0411 -1.9840 -0.4892
    6DOPC   C28  750   6.660  12.526   5.576  0.0245  0.3718  0.0382
    6DOPC   H8R  751   6.740  12.509   5.501 -0.8817  0.5941 -1.0104
    6DOPC   H8S  752   6.679  12.604   5.652  1.2202  0.7396 -0.6302
    6DOPC   C29  753   6.530  12.558   5.506 -0.3210 -0.0903 -0.1342
    6DOPC   H9R  754   6.458  12.622   5.559 -1.7992  0.9231 -3.1411
    6DOPC  C210  755   6.487  12.535   5.382 -0.2030  0.2955  0.0747
    6DOPC  H10R  756   6.387  12.571   5.355 -0.4159 -0.5603 -0.3095
    6DOPC  C211  757   6.559  12.462   5.269 -0.1697  0.4062 -1.0714
    6DOPC  H11R  758   6.650  12.408   5.302 -0.1538  1.6676  1.1098
    6DOPC  H11S  759   6.594  12.536   5.193  0.8343  0.9301 -0.1235
    6DOPC  C212  760   6.465  12.375   5.185 -0.2433 -0.8711  0.1502
    6DOPC  H12R  761   6.385  12.439   5.144 -1.0811 -1.1545  1.3090
    6DOPC  H12S  762   6.416  12.297   5.247  0.4573  0.0944  1.9958
    6DOPC  C213  763   6.539  12.322   5.061 -0.3529 -0.1428  0.1363
    6DOPC  H13R  764   6.646  12.293   5.076  0.2918  2.2949  0.6676
    6DOPC  H13S  765   6.555  12.409   4.994  1.1092  0.2475  0.9549
    6DOPC  C214  766   6.444  12.219   5.003 -0.0189 -0.0555 -0.0889
    6DOPC  H14R  767   6.341  12.243   5.037  0.7204  1.8512  0.9442
    6DOPC  H14S  768   6.455  12.116   5.044 -2.4698  0.3969  1.9810
    6DOPC  C215  769   6.464  12.213   4.852 -1.1486  0.0632  0.5885
    6DOPC  H15R  770   6.574  12.215   4.837 -0.9666  0.4484  1.8755
    6DOPC  H15S  771   6.411  12.293   4.796 -1.6105  1.1072  2.4470
    6DOPC  C216  772   6.434  12.076   4.790 -0.1660  1.0117 -0.1945
    6DOPC  H16R  773   6.323  12.075   4.781 -0.7736  1.1316  4.5670
    6DOPC  H16S  774   6.485  12.010   4.864 -0.8269  0.4385 -0.2306
    6DOPC  C217  775   6.501  12.035   4.657 -0.4366 -0.7961 -0.0466
    6DOPC  H17R  776   6.440  11.951   4.617 -1.0783 -0.7531  0.7985
    6DOPC  H17S  777   6.602  11.997   4.684 -0.9465 -1.3538  1.2154
    6DOPC  C218  778   6.510  12.143   4.550  0.3486 -0.1408 -0.8755
    6DOPC  H18R  779   6.415  12.142   4.493  0.3461 -2.6379 -0.9241
    6DOPC  H18S  780   6.591  12.128   4.476  1.6686  0.2966  0.4430
    6DOPC  H18T  781   6.527  12.246   4.590 -1.6798 -0.3034  0.5830
    6DOPC   C33  782   6.558  11.690   5.501 -0.3857  0.1207 -0.1201
    6DOPC   H3X  783   6.469  11.757   5.496  0.4160  1.1449 -2.6208
    6DOPC   H3Y  784   6.524  11.585   5.512  0.8683 -0.2591  0.2710
    6DOPC   C34  785   6.639  11.699   5.364 -0.0004 -0.5002 -0.4240
    6DOPC   H4X  786   6.572  11.642   5.296 -0.1086  0.0760 -0.8035
    6DOPC   H4Y  787   6.733  11.640   5.371  0.2937 -0.3438 -2.4201
    6DOPC   C35  788   6.673  11.840   5.316  0.5139 -0.9406 -0.0292
    6DOPC   H5X  789   6.716  11.904   5.396  1.8721 -2.4739  0.5107
    6DOPC   H5Y  790   6.583  11.895   5.280  1.1313  0.4067  0.4020
    6DOPC   C36  791   6.770  11.820   5.198 -0.1955 -0.1636  0.0104
    6DOPC   H6X  792   6.865  11.778   5.236 -0.0589  0.6999  0.6559
    6DOPC   H6Y  793   6.725  11.748   5.126 -0.2099 -0.6521  0.4938
    6DOPC   C37  794   6.817  11.950   5.128 -0.5585  0.5975 -0.0069
    6DOPC   H7X  795   6.723  12.006   5.111 -2.0358 -1.9582 -0.8628
    6DOPC   H7Y  796   6.893  11.995   5.195  0.0560  3.0425 -2.1890
    6DOPC   C38  797   6.882  11.920   4.992  0.0365  0.5040 -0.0401
    6DOPC   H8X  798   6.926  12.018   4.963  3.4757 -0.8176  0.2291
    6DOPC   H8Y  799   6.816  11.887   4.908  0.9983  2.5421 -1.6877
    6DOPC   C39  800   7.001  11.820   4.992 -0.0491 -0.4682  0.1691
    6DOPC   H9X  801   6.979  11.712   4.993  2.6450 -1.1613 -2.5162
    6DOPC  C310  802   7.133  11.849   5.028  0.5511  0.1572  0.6353
    6DOPC  H10X  803   7.208  11.769   5.021 -0.2460 -0.5232 -0.5915
    6DOPC  C311  804   7.200  11.980   5.060  0.1418  0.1738  0.1653
    6DOPC  H11X  805   7.223  11.990   5.168  1.7112  0.8537 -0.2048
    6DOPC  H11Y  806   7.131  12.065   5.041  1.5550  1.0068 -1.5679
    6DOPC  C312  807   7.338  11.999   4.986  0.6014  0.2313 -0.6786
    6DOPC  H12X  808   7.408  11.916   5.011 -0.0872 -0.6993 -1.7530
    6DOPC  H12Y  809   7.384  12.096   5.013  1.0347 -0.5280  1.4804
    6DOPC  C313  810   7.311  11.994   4.833 -0.6814 -0.3877  0.5194
    6DOPC  H13X  811   7.274  11.893   4.804  0.5848 -1.3949  2.2111
    6DOPC  H13Y  812   7.231  12.069   4.816 -1.0269 -0.8664  0.0179
    6DOPC  C314  813   7.440  12.042   4.754  0.2665 -0.3991  0.1364
    6DOPC  H14X  814   7.458  12.150   4.774 -0.2996 -0.2625 -0.0596
    6DOPC  H14Y  815   7.522  11.986   4.803  2.5521  2.5562 -0.0043
    6DOPC  C315  816   7.446  12.030   4.603  0.9253 -0.5576  0.3656
    6DOPC  H15X  817   7.370  12.102   4.564  0.4682 -0.8808  0.6537
    6DOPC  H15Y  818   7.429  11.927   4.566  0.7489  0.1284 -1.6234
    6DOPC  C316  819   7.580  12.080   4.539 -0.2143  0.3830 -0.2899
    6DOPC  H16X  820   7.599  12.188   4.552  0.1545  0.4226 -1.0991
    6DOPC  H16Y  821   7.661  12.024   4.591 -2.7009 -0.5856  2.9199
    6DOPC  C317  822   7.584  12.045   4.388  0.4290  0.0318 -0.0871
    6DOPC  H17X  823   7.553  11.938   4.379 -0.8141  0.4122 -0.4568
    6DOPC  H17Y  824   7.499  12.090   4.334 -0.2021 -0.9410  0.0573
    6DOPC  C318  825   7.709  12.074   4.304 -0.1779 -0.6791  0.1413
    6DOPC  H18X  826   7.732  12.182   4.292  1.3615 -1.1111 -1.0148
    6DOPC  H18Y  827   7.797  12.040   4.362 -0.9015 -1.9169  0.5492
    6DOPC  H18Z  828   7.710  12.025   4.204 -0.1125  1.6005 -1.0435
    7DOPC     N  829   4.900   3.457   6.089 -0.3586 -0.3898  0.0763
    7DOPC   C12  830   5.045   3.476   6.132  0.1927  0.4096 -0.4881
    7DOPC  H12A  831   5.089   3.392   6.183  0.9661 -0.8188 -3.0518
    7DOPC  H12B  832   5.051   3.565   6.193 -0.7595 -0.8434  1.5446
    7DOPC   C13  833   4.814   3.428   6.212  0.0408 -0.0670 -0.2598
    7DOPC  H13A  834   4.839   3.328   6.244  0.1543 -0.7213 -2.2790
    7DOPC  H13B  835   4.826   3.499   6.293 -0.7346  1.0053 -1.0398
    7DOPC  H13C  836   4.712   3.413   6.181 -0.0597 -0.4338  0.2299
    7DOPC   C14  837   4.894   3.344   5.982  0.8115  0.6266 -0.1060
    7DOPC  H14A  838   4.945   3.251   6.006  1.8064  0.4924 -2.4823
    7DOPC  H14B  839   4.792   3.317   5.959  1.0759 -1.9628  1.2960
    7DOPC  H14C  840   4.934   3.383   5.890 -0.4538  1.8809 -0.1612
    7DOPC   C15  841   4.871   3.585   6.028  0.7449  0.2087  0.5365
    7DOPC  H15A  842   4.783   3.574   5.966  2.2861 -0.6392 -1.6165
    7DOPC  H15B  843   4.950   3.614   5.961  0.5609  0.3095  0.3589
    7DOPC  H15C  844   4.850   3.662   6.102  2.3851  0.1092  1.1262
    7DOPC   C11  845   5.146   3.508   6.016 -0.4624 -0.4166 -0.4415
    7DOPC  H11A  846   5.240   3.479   6.066  0.4013  0.5710 -1.4475
    7DOPC  H11B  847   5.127   3.447   5.925  0.5127 -1.3058 -0.0577
    7DOPC     P  848   5.258   3.746   6.043 -0.2499 -0.1617  0.0258
    7DOPC   O13  849   5.343   3.677   6.148 -0.2336 -0.1503  0.2954
    7DOPC   O14  850   5.204   3.879   6.082 -0.3550 -0.7938 -0.4123
    7DOPC   O12  851   5.141   3.651   5.994 -0.8745 -0.1829 -0.1143
    7DOPC   O11  852   5.342   3.776   5.910  0.0746  0.3372  0.2094
    7DOPC    C1  853   5.340   3.693   5.796 -0.5196 -1.0499  0.3406
    7DOPC    HA  854   5.292   3.593   5.800  2.2182 -2.4616  0.3607
    7DOPC    HB  855   5.441   3.665   5.760 -1.2608 -2.1728 -0.9368
    7DOPC    C2  856   5.278   3.779   5.675 -0.1568 -0.5648 -0.1105
    7DOPC    HS  857   5.243   3.707   5.598 -1.8825  2.2166 -2.1553
    7DOPC   O21  858   5.365   3.876   5.616  0.4781  0.2933  0.0607
    7DOPC   C21  859   5.454   3.820   5.537  0.1160  0.7197 -0.5066
    7DOPC   O22  860   5.477   3.699   5.521  0.0259 -0.2615  0.6618
    7DOPC   C22  861   5.525   3.931   5.456  0.1990 -0.7817 -0.3297
    7DOPC   H2R  862   5.591   3.983   5.529 -0.3108 -1.3854  0.5750
    7DOPC   H2S  863   5.453   4.009   5.421  1.3892  0.1162 -0.8595
    7DOPC    C3  864   5.154   3.851   5.722  0.4100 -0.7272 -0.0984
    7DOPC    HX  865   5.175   3.948   5.770  1.3608  0.0320 -1.9336
    7DOPC    HY  866   5.100   3.791   5.798  1.7530 -1.1474  0.5493
    7DOPC   O31  867   5.073   3.880   5.605 -0.2928  0.7370  0.1060
    7DOPC   C31  868   4.958   3.812   5.589  0.7404  0.2631  0.2633
    7DOPC   O32  869   4.920   3.716   5.658 -0.3905 -0.9590 -0.8753
    7DOPC   C32  870   4.873   3.887   5.480  0.0800  0.2728 -0.0366
    7DOPC   H2X  871   4.802   3.959   5.525 -1.5710  0.1091 -2.2188
    7DOPC   H2Y  872   4.943   3.953   5.425 -0.0929  0.1345 -0.4272
    7DOPC   C23  873   5.611   3.853   5.355 -0.3617 -0.1244  0.6535
    7DOPC   H3R  874   5.547   3.791   5.288 -0.4939  1.3362 -0.6377
    7DOPC   H3S  875   5.677   3.781   5.408 -0.1777 -2.0459 -1.9409
    7DOPC   C24  876   5.719   3.934   5.284 -0.2116  0.9945 -0.2391
    7DOPC   H4R  877   5.810   3.879   5.252  0.1226  0.8632  0.8859
    7DOPC   H4S  878   5.759   4.008   5.357 -1.4254  1.7436 -0.2985
    7DOPC   C25  879   5.667   4.004   5.156 -0.4073 -0.1952 -0.1666
    7DOPC   H5R  880   5.686   4.111   5.179  5.8391 -0.4443 -2.1858
    7DOPC   H5S  881   5.559   3.980   5.153 -0.6283  0.2902  2.0848
    7DOPC   C26  882   5.742   3.974   5.027 -0.6475 -0.4097 -0.0983
    7DOPC   H6R  883   5.741   3.864   5.013 -0.4708 -0.0947 -3.3111
    7DOPC   H6S  884   5.849   3.999   5.037 -0.2613 -1.7951 -0.5726
    7DOPC   C27  885   5.692   4.051   4.904  0.5152  0.5467  0.2008
    7DOPC   H7R  886   5.769   4.060   4.824  0.5177  0.9724  0.2507
    7DOPC   H7S  887   5.669   4.154   4.938  0.8143  1.0053 -0.9351
    7DOPC   C28  888   5.565   3.990   4.844  0.5892 -0.1944  0.2522
    7DOPC   H8R  889   5.496   3.972   4.930 -0.3682 -2.1970 -0.8657
    7DOPC   H8S  890   5.594   3.888   4.813  1.2089  0.1030 -0.1622
    7DOPC   C29  891   5.514   4.075   4.732  0.1825 -0.6428  0.3329
    7DOPC   H9R  892   5.492   4.180   4.757 -1.1063 -0.3589 -1.6808
    7DOPC  C210  893   5.486   4.040   4.605  0.4738 -0.4469  0.2211
    7DOPC  H10R  894   5.451   4.115   4.532 -1.6820 -0.5007  1.1245
    7DOPC  C211  895   5.506   3.908   4.540  0.6315  1.2826  0.4625
    7DOPC  H11R  896   5.535   3.835   4.619  0.3987  0.1222 -0.4959
    7DOPC  H11S  897   5.583   3.916   4.459  1.2040 -0.8157  0.7553
    7DOPC  C212  898   5.375   3.846   4.494 -0.5563 -0.0868 -0.2230
    7DOPC  H12R  899   5.315   3.915   4.431 -0.2589 -2.3593 -3.2289
    7DOPC  H12S  900   5.311   3.824   4.582 -1.4063  0.7422 -0.6094
    7DOPC  C213  901   5.419   3.732   4.412 -0.2349  0.6242  0.0101
    7DOPC  H13R  902   5.483   3.667   4.475  1.9403  1.1861 -1.4756
    7DOPC  H13S  903   5.481   3.770   4.328  1.5307 -0.4611  0.7652
    7DOPC  C214  904   5.292   3.652   4.359 -0.3383  0.5531  0.2139
    7DOPC  H14R  905   5.245   3.724   4.289 -2.4996 -0.5776  0.3954
    7DOPC  H14S  906   5.220   3.623   4.438  2.3517 -0.0155  2.6073
    7DOPC  C215  907   5.319   3.525   4.278 -0.2583 -0.5461 -0.1591
    7DOPC  H15R  908   5.344   3.442   4.347  2.3733 -0.7809 -1.2769
    7DOPC  H15S  909   5.410   3.538   4.216 -0.3852 -2.0328 -0.6844
    7DOPC  C216  910   5.198   3.487   4.196 -0.5112  0.2800  0.6620
    7DOPC  H16R  911   5.189   3.554   4.108  1.5256 -0.7419 -0.3931
    7DOPC  H16S  912   5.104   3.482   4.256  1.0433 -0.8301  3.1735
    7DOPC  C217  913   5.211   3.346   4.146  0.0452  0.2943 -0.1777
    7DOPC  H17R  914   5.230   3.288   4.239 -0.0420 -0.0438 -0.3688
    7DOPC  H17S  915   5.305   3.348   4.086  0.8999 -0.1812  1.0978
    7DOPC  C218  916   5.096   3.294   4.065  0.4916  0.6395 -0.6208
    7DOPC  H18R  917   5.016   3.248   4.127  1.8757 -1.0883 -0.0313
    7DOPC  H18S  918   5.131   3.204   4.011 -2.6034  0.6241 -2.8851
    7DOPC  H18T  919   5.052   3.370   3.997  1.6016  1.0549 -0.8936
    7DOPC   C33  920   4.796   3.789   5.388  0.5306 -0.8042 -0.1236
    7DOPC   H3X  921   4.727   3.838   5.316 -0.5506  0.2350  1.5267
    7DOPC   H3Y  922   4.729   3.726   5.451 -0.3643  1.4692  1.3313
    7DOPC   C34  923   4.871   3.685   5.305 -0.6441 -0.1943  0.6143
    7DOPC   H4X  924   4.791   3.612   5.281 -1.2036  0.3467  0.7888
    7DOPC   H4Y  925   4.947   3.641   5.373  0.9440  0.6296 -0.5861
    7DOPC   C35  926   4.932   3.758   5.181 -0.2837  0.7231 -0.1128
    7DOPC   H5X  927   4.991   3.843   5.223 -1.2363  0.3699  2.0661
    7DOPC   H5Y  928   4.850   3.791   5.114  0.9122 -2.0862 -3.1804
    7DOPC   C36  929   5.026   3.671   5.095 -0.4715  0.3405 -0.0616
    7DOPC   H6X  930   4.969   3.591   5.042  0.1638  0.3849 -0.8351
    7DOPC   H6Y  931   5.059   3.742   5.016  1.5442 -0.3462  0.1083
    7DOPC   C37  932   5.150   3.622   5.170  0.6394 -0.1025 -0.2614
    7DOPC   H7X  933   5.189   3.715   5.218 -0.0384  0.0182  0.0626
    7DOPC   H7Y  934   5.127   3.541   5.242  1.6072 -1.1196 -1.0489
    7DOPC   C38  935   5.255   3.560   5.081 -0.2875  0.0495 -0.0747
    7DOPC   H8X  936   5.207   3.476   5.026  0.8747 -0.8808  0.2811
    7DOPC   H8Y  937   5.334   3.508   5.139  0.6684 -1.4448 -2.5460
    7DOPC   C39  938   5.322   3.659   4.988 -0.3007  0.8602 -0.3051
    7DOPC   H9X  939   5.404   3.703   5.048  0.9229 -1.0378 -0.4986
    7DOPC  C310  940   5.320   3.667   4.855 -0.0287  0.4948  0.2351
    7DOPC  H10X  941   5.374   3.751   4.809  0.3238  0.3423  0.3701
    7DOPC  C311  942   5.218   3.593   4.772  0.1946  0.2267 -0.2382
    7DOPC  H11X  943   5.206   3.656   4.681 -2.2308  1.2276  0.6740
    7DOPC  H11Y  944   5.121   3.582   4.825  1.0108  0.0451  1.2771
    7DOPC  C312  945   5.257   3.452   4.727  0.2410 -0.2216 -0.2220
    7DOPC  H12X  946   5.282   3.385   4.812  0.8640  1.0790  0.6542
    7DOPC  H12Y  947   5.349   3.460   4.664 -0.2374  1.2685 -0.7738
    7DOPC  C313  948   5.142   3.394   4.638  0.1844 -0.0242  0.0604
    7DOPC  H13X  949   5.052   3.363   4.696  0.0715 -2.3251 -1.2343
    7DOPC  H13Y  950   5.109   3.472   4.566  0.0089  0.5063  0.7017
    7DOPC  C314  951   5.190   3.276   4.556 -0.6441  0.2303  0.6764
    7DOPC  H14X  952   5.276   3.303   4.490 -1.4778  1.1914 -0.0436
    7DOPC  H14Y  953   5.223   3.195   4.625 -0.9575  0.8925  1.6073
    7DOPC  C315  954   5.067   3.236   4.468  0.4764  0.0279  0.4785
    7DOPC  H15X  955   5.032   3.320   4.404 -1.3078 -1.5350 -0.7070
    7DOPC  H15Y  956   4.994   3.228   4.552  0.4995 -0.1851  0.4799
    7DOPC  C316  957   5.083   3.096   4.406 -0.3956 -0.4284  0.1769
    7DOPC  H16X  958   5.117   3.089   4.300 -1.9948  3.1690 -0.7390
    7DOPC  H16Y  959   5.165   3.051   4.465 -0.7751  0.5684  1.5257
    7DOPC  C317  960   4.953   3.013   4.407  0.3873  0.3447 -0.4388
    7DOPC  H17X  961   4.966   2.904   4.390  1.2239  0.6735 -2.1123
    7DOPC  H17Y  962   4.914   3.014   4.511 -1.9632  2.4258 -1.2486
    7DOPC  C318  963   4.834   3.062   4.327 -0.5613  0.0408  0.1406
    7DOPC  H18X  964   4.848   3.057   4.217 -0.0816  0.3125  0.1851
    7DOPC  H18Y  965   4.745   2.996   4.333 -0.6133 -0.2254 -2.4779
    7DOPC  H18Z  966   4.810   3.167   4.353 -0.2865 -0.8103  4.5594
    8DOPC     N  967   6.474   8.679   6.435  0.0842 -0.3680  0.1038
    8DOPC   C12  968   6.356   8.759   6.376  0.2940 -0.9210  0.1448
    8DOPC  H12A  969   6.345   8.848   6.436  0.9157 -0.5559 -0.2670
    8DOPC  H12B  970   6.266   8.700   6.380 -2.0362  2.4348  2.7542
    8DOPC   C13  971   6.431   8.639   6.580 -0.6290  0.1542  0.2182
    8DOPC  H13A  972   6.391   8.725   6.631 -0.0917  1.0001 -0.7623
    8DOPC  H13B  973   6.354   8.563   6.570  0.7729 -1.3560  0.5789
    8DOPC  H13C  974   6.520   8.599   6.625  1.0191  3.3995  0.0828
    8DOPC   C14  975   6.586   8.775   6.450 -0.4402 -0.0979 -0.3104
    8DOPC  H14A  976   6.564   8.850   6.524  0.3859  0.0634 -0.2158
    8DOPC  H14B  977   6.679   8.727   6.477  0.9509  2.7761  0.5300
    8DOPC  H14C  978   6.598   8.834   6.360 -0.5283 -0.5143 -0.5986
    8DOPC   C15  979   6.510   8.562   6.347 -0.5327 -0.1314  0.5321
    8DOPC  H15A  980   6.591   8.502   6.386  0.9147  0.5099 -1.3219
    8DOPC  H15B  981   6.552   8.602   6.255  2.3100 -2.9770  0.3795
    8DOPC  H15C  982   6.431   8.492   6.326 -1.1086  0.4284  0.8289
    8DOPC   C11  983   6.379   8.815   6.233  0.4179  0.3187  1.0851
    8DOPC  H11A  984   6.292   8.878   6.205  0.7483 -0.0005 -0.8011
    8DOPC  H11B  985   6.470   8.878   6.222  0.5820 -0.1053 -0.1830
    8DOPC     P  986   6.256   8.651   6.069  0.0900 -0.0361  0.5297
    8DOPC   O13  987   6.157   8.758   6.045  0.1898 -0.4921 -0.2588
    8DOPC   O14  988   6.212   8.538   6.152  0.7645  0.2541  0.0878
    8DOPC   O12  989   6.385   8.718   6.130  0.1405  1.0941  0.9373
    8DOPC   O11  990   6.289   8.594   5.919  0.1282 -0.0615 -0.0207
    8DOPC    C1  991   6.387   8.661   5.839  0.3389 -0.7118 -0.2433
    8DOPC    HA  992   6.487   8.631   5.877 -0.3803  0.3832  2.8270
    8DOPC    HB  993   6.397   8.770   5.860  1.7134 -0.8879  0.1016
    8DOPC    C2  994   6.377   8.630   5.688 -0.3086 -0.4511 -0.0523
    8DOPC    HS  995   6.465   8.665   5.630  0.2447 -2.9200 -0.8121
    8DOPC   O21  996   6.263   8.688   5.628  0.3736 -0.7920  0.0259
    8DOPC   C21  997   6.273   8.819   5.631  0.3185 -0.4068  0.6324
    8DOPC   O22  998   6.367   8.890   5.668  0.2371 -0.3403  1.0247
    8DOPC   C22  999   6.144   8.881   5.572 -0.4092  0.1566  0.5679
    8DOPC   H2R 1000   6.171   8.987   5.551 -0.5067 -0.1134 -1.0434
    8DOPC   H2S 1001   6.074   8.875   5.657 -1.8181 -3.1765 -0.6492
    8DOPC    C3 1002   6.386   8.481   5.659 -0.1279  0.2370 -0.6345
    8DOPC    HX 1003   6.302   8.431   5.713 -0.8959  0.9772 -1.1207
    8DOPC    HY 1004   6.479   8.456   5.714 -0.8931  1.2563  1.2070
    8DOPC   O31 1005   6.390   8.454   5.521 -1.0650 -0.1746  0.7628
    8DOPC   C31 1006   6.277   8.428   5.462  0.1560 -0.2254  0.8070
    8DOPC   O32 1007   6.173   8.411   5.517  0.4797 -0.0206  0.1404
    8DOPC   C32 1008   6.309   8.433   5.313  0.0887  0.7178  0.1068
    8DOPC   H2X 1009   6.397   8.497   5.293  1.6025 -1.6761 -1.4080
    8DOPC   H2Y 1010   6.332   8.327   5.288 -0.3983  0.9521 -1.5147
    8DOPC   C23 1011   6.081   8.813   5.445  0.6907  0.1748  0.3696
    8DOPC   H3R 1012   6.046   8.715   5.483  0.9615  0.3579  1.0929
    8DOPC   H3S 1013   6.162   8.789   5.373  0.1363  0.5716 -0.4093
    8DOPC   C24 1014   5.971   8.889   5.373  0.0031 -0.3867 -0.4693
    8DOPC   H4R 1015   6.019   8.954   5.297 -1.5246  0.2235 -0.9561
    8DOPC   H4S 1016   5.920   8.964   5.437 -0.1070  0.1840 -1.2094
    8DOPC   C25 1017   5.877   8.784   5.320  0.2629 -0.3734  0.0010
    8DOPC   H5R 1018   5.817   8.742   5.404  0.0102 -2.1012 -0.9884
    8DOPC   H5S 1019   5.931   8.705   5.264  0.7697 -0.2238  0.2798
    8DOPC   C26 1020   5.784   8.843   5.209  0.3035 -0.2684  0.4375
    8DOPC   H6R 1021   5.777   8.952   5.231  1.3619 -0.6773  3.1725
    8DOPC   H6S 1022   5.687   8.790   5.212  0.5809 -1.1784 -2.5758
    8DOPC   C27 1023   5.853   8.820   5.076 -0.7696  0.3677 -0.2546
    8DOPC   H7R 1024   5.852   8.709   5.062 -1.1738  0.4288 -0.7337
    8DOPC   H7S 1025   5.957   8.853   5.097 -0.1789 -1.6548  0.2693
    8DOPC   C28 1026   5.805   8.899   4.957 -0.0816 -0.2283  0.0659
    8DOPC   H8R 1027   5.879   8.901   4.875 -0.2632  0.0922 -0.0903
    8DOPC   H8S 1028   5.795   9.004   4.993  1.7043 -0.5419  1.6557
    8DOPC   C29 1029   5.671   8.853   4.897 -0.5531 -0.8123 -0.1088
    8DOPC   H9R 1030   5.605   8.807   4.971  2.0142 -3.1143  0.9304
    8DOPC  C210 1031   5.643   8.860   4.768 -0.3182  0.0107  0.1412
    8DOPC  H10R 1032   5.545   8.821   4.736  0.1916 -0.5420 -0.7905
    8DOPC  C211 1033   5.725   8.922   4.659 -0.2584  0.6524  0.2249
    8DOPC  H11R 1034   5.831   8.890   4.667  0.4349  2.8724  0.6798
    8DOPC  H11S 1035   5.729   9.030   4.685  2.2181  0.6496  0.1293
    8DOPC  C212 1036   5.681   8.911   4.507  0.1576 -0.2181 -0.5945
    8DOPC  H12R 1037   5.583   8.963   4.510  0.1302 -0.2352 -1.1449
    8DOPC  H12S 1038   5.667   8.807   4.472 -3.0543  0.2300 -0.9599
    8DOPC  C213 1039   5.770   8.989   4.408 -0.1267  0.3595 -0.1246
    8DOPC  H13R 1040   5.869   8.938   4.414 -0.3580 -0.3478 -1.8489
    8DOPC  H13S 1041   5.791   9.090   4.448 -0.0586  0.3730 -0.1923
    8DOPC  C214 1042   5.721   8.993   4.267  0.9949  0.2102  0.1388
    8DOPC  H14R 1043   5.613   9.020   4.266  0.3818 -2.0375  0.3855
    8DOPC  H14S 1044   5.724   8.893   4.219  0.1549 -0.0207  0.5447
    8DOPC  C215 1045   5.812   9.070   4.175 -0.0751  0.4824  0.3281
    8DOPC  H15R 1046   5.837   9.169   4.220  0.7759  0.3771  0.0937
    8DOPC  H15S 1047   5.765   9.114   4.084  1.3389 -1.1390 -1.2669
    8DOPC  C216 1048   5.933   8.989   4.129 -0.4562 -0.0489  0.3054
    8DOPC  H16R 1049   5.911   8.881   4.116  0.7349 -0.2255 -0.3838
    8DOPC  H16S 1050   6.014   8.999   4.204  0.2585 -2.4366 -0.0885
    8DOPC  C217 1051   5.986   9.051   3.992  0.3212 -0.5246 -0.3117
    8DOPC  H17R 1052   6.037   9.148   4.009 -3.1161  0.9829  2.9965
    8DOPC  H17S 1053   5.908   9.045   3.913  0.5385 -3.3967 -0.4452
    8DOPC  C218 1054   6.104   8.963   3.943 -0.0651  0.8676 -0.0594
    8DOPC  H18R 1055   6.158   9.009   3.857 -0.4212 -3.0841 -2.6861
    8DOPC  H18S 1056   6.080   8.858   3.915  0.3988  0.9583 -0.8283
    8DOPC  H18T 1057   6.186   8.950   4.017  0.5546 -1.7673 -1.1014
    8DOPC   C33 1058   6.183   8.473   5.230 -0.2804  0.1931  1.1223
    8DOPC   H3X 1059   6.179   8.584   5.231  1.0803  0.2925 -0.7626
    8DOPC   H3Y 1060   6.090   8.423   5.267 -0.9559  0.6275  0.0608
    8DOPC   C34 1061   6.198   8.444   5.084  0.2261 -0.1492 -0.0627
    8DOPC   H4X 1062   6.215   8.335   5.067 -0.2261 -0.2236 -0.0558
    8DOPC   H4Y 1063   6.281   8.507   5.045 -0.9877  1.2467 -0.4806
    8DOPC   C35 1064   6.065   8.467   5.006 -0.4021 -0.0798 -0.4925
    8DOPC   H5X 1065   6.030   8.571   5.019  1.5669  0.5104  0.4019
    8DOPC   H5Y 1066   5.989   8.393   5.039 -0.3448 -0.9051 -2.0785
    8DOPC   C36 1067   6.088   8.424   4.864 -0.1550 -0.3403  0.1655
    8DOPC   H6X 1068   6.167   8.491   4.824 -0.8958  1.9057  2.1906
    8DOPC   H6Y 1069   6.131   8.322   4.857 -0.1469 -0.2915 -0.5651
    8DOPC   C37 1070   5.958   8.438   4.777 -0.0889  0.0479 -0.4824
    8DOPC   H7X 1071   5.987   8.382   4.686 -0.8098 -0.0057 -0.6905
    8DOPC   H7Y 1072   5.872   8.382   4.822  0.5992 -0.9712 -0.4031
    8DOPC   C38 1073   5.924   8.582   4.753 -0.7451 -0.2586 -0.6754
    8DOPC   H8X 1074   6.011   8.646   4.726 -1.3679  1.4598  1.1512
    8DOPC   H8Y 1075   5.886   8.631   4.845  0.0465  0.4840 -0.7262
    8DOPC   C39 1076   5.820   8.594   4.639 -0.0384 -0.2926 -0.1897
    8DOPC   H9X 1077   5.716   8.607   4.673 -1.1126 -2.3808 -2.3630
    8DOPC  C310 1078   5.845   8.581   4.506 -0.2706  0.3797 -0.3564
    8DOPC  H10X 1079   5.761   8.586   4.434 -2.7111 -0.0315  2.3057
    8DOPC  C311 1080   5.969   8.534   4.427 -0.3887 -0.2962 -0.0312
    8DOPC  H11X 1081   5.938   8.454   4.356  0.7674 -2.4631  1.7883
    8DOPC  H11Y 1082   6.046   8.482   4.488  1.6647  1.3228 -1.0679
    8DOPC  C312 1083   6.024   8.651   4.344  0.1613 -0.8181 -0.3745
    8DOPC  H12X 1084   6.067   8.730   4.409 -0.6678  1.0104 -1.9641
    8DOPC  H12Y 1085   5.944   8.687   4.276  1.5443 -1.0389 -2.1941
    8DOPC  C313 1086   6.138   8.595   4.257  0.5345 -0.5327 -0.0191
    8DOPC  H13X 1087   6.169   8.499   4.304  0.1879 -0.4329  0.4208
    8DOPC  H13Y 1088   6.102   8.579   4.153 -1.0398  3.0454 -0.1524
    8DOPC  C314 1089   6.263   8.681   4.265  0.4522 -0.3202 -0.3387
    8DOPC  H14X 1090   6.228   8.786   4.250  0.9228  0.3463  2.6231
    8DOPC  H14Y 1091   6.301   8.672   4.369  0.7853 -1.1859 -0.5340
    8DOPC  C315 1092   6.376   8.649   4.172  0.3842  0.5868  0.4089
    8DOPC  H15X 1093   6.340   8.671   4.070 -4.1912 -2.2477  1.1305
    8DOPC  H15Y 1094   6.404   8.543   4.186  3.2949  1.6570  4.6887
    8DOPC  C316 1095   6.503   8.729   4.212  0.4791 -0.4941  0.1961
    8DOPC  H16X 1096   6.467   8.830   4.237  2.1358  0.2256 -0.1985
    8DOPC  H16Y 1097   6.540   8.682   4.305  2.1506  0.7313  0.1903
    8DOPC  C317 1098   6.620   8.740   4.111  0.0735 -0.1856  0.5832
    8DOPC  H17X 1099   6.586   8.753   4.006 -0.2850  0.1485  0.7417
    8DOPC  H17Y 1100   6.671   8.835   4.136  0.6999 -0.3122 -0.1500
    8DOPC  C318 1101   6.701   8.607   4.107  0.3482  0.9709  0.6813
    8DOPC  H18X 1102   6.635   8.518   4.102 -0.9936  2.0092 -2.2916
    8DOPC  H18Y 1103   6.770   8.610   4.020  1.1590 -2.2866  1.1171
    8DOPC  H18Z 1104   6.771   8.600   4.193 -1.9119  2.4587  2.7838
    9DOPC     N 1105   7.257   2.611   6.158  0.0089  0.4273 -0.4249
    9DOPC   C12 1106   7.249   2.717   6.051  0.0571  0.1178 -0.1911
    9DOPC  H12A 1107   7.338   2.710   5.990  0.7954 -0.7884  0.9540
    9DOPC  H12B 1108   7.242   2.812   6.101 -0.7587 -0.3697  0.6495
    9DOPC   C13 1109   7.262   2.481   6.096 -0.7386 -0.7941 -0.1615
    9DOPC  H13A 1110   7.317   2.409   6.155  1.9681  0.2659 -1.2422
    9DOPC  H13B 1111   7.161   2.450   6.070 -1.1105  1.2185 -1.3554
    9DOPC  H13C 1112   7.310   2.493   6.001 -0.3029 -0.3737  0.1078
    9DOPC   C14 1113   7.137   2.608   6.244  0.3423  0.7647 -0.1209
    9DOPC  H14A 1114   7.048   2.602   6.184  0.1013 -1.1109  0.3470
    9DOPC  H14B 1115   7.149   2.517   6.302  1.7131  0.3256 -1.0314
    9DOPC  H14C 1116   7.129   2.691   6.311  1.9822  1.2682 -0.4927
    9DOPC   C15 1117   7.389   2.635   6.230  0.0700 -0.2292  0.2573
    9DOPC  H15A 1118   7.394   2.558   6.305  2.1622 -2.3238 -1.8976
    9DOPC  H15B 1119   7.400   2.731   6.280 -0.2868 -0.5026  0.8766
    9DOPC  H15C 1120   7.468   2.623   6.159 -0.9895  0.2297 -1.0455
    9DOPC   C11 1121   7.143   2.699   5.947 -0.0831 -0.1556 -0.4716
    9DOPC  H11A 1122   7.170   2.760   5.859  3.1012 -0.4046  0.2054
    9DOPC  H11B 1123   7.151   2.600   5.897  0.2835 -0.2691 -0.1936
    9DOPC     P 1124   6.962   2.865   6.032 -0.5716 -0.2566  0.1286
    9DOPC   O13 1125   7.061   2.931   6.121 -0.3259  0.2701 -0.5467
    9DOPC   O14 1126   6.821   2.864   6.075 -0.0882 -0.4261 -0.2559
    9DOPC   O12 1127   7.013   2.719   5.996 -0.0321 -0.4677  0.6051
    9DOPC   O11 1128   6.961   2.932   5.888 -0.2100 -0.1298  0.3533
    9DOPC    C1 1129   6.862   2.885   5.796 -0.0214  0.3745 -0.4294
    9DOPC    HA 1130   6.798   2.966   5.755 -1.1768 -0.3445 -0.0843
    9DOPC    HB 1131   6.796   2.809   5.843  1.1613 -0.0159  0.6291
    9DOPC    C2 1132   6.923   2.812   5.676 -0.6994 -0.0592  0.3229
    9DOPC    HS 1133   6.968   2.718   5.715 -0.4343  0.1921  0.6342
    9DOPC   O21 1134   7.014   2.899   5.598  0.6907  0.2520 -0.4093
    9DOPC   C21 1135   7.133   2.841   5.567  0.6411  0.4066 -0.9954
    9DOPC   O22 1136   7.161   2.723   5.594  0.4700 -0.1208  0.2908
    9DOPC   C22 1137   7.230   2.932   5.481 -0.6978 -0.2151 -0.1121
    9DOPC   H2R 1138   7.305   2.861   5.440 -0.3013  0.7772 -1.1493
    9DOPC   H2S 1139   7.272   3.011   5.547  0.4580  0.8869 -2.0885
    9DOPC    C3 1140   6.817   2.762   5.575 -0.2843  0.2679 -0.0725
    9DOPC    HX 1141   6.755   2.845   5.536 -2.0878 -0.8133  0.3664
    9DOPC    HY 1142   6.748   2.694   5.631  1.3296 -0.7861  0.7284
    9DOPC   O31 1143   6.871   2.689   5.464 -0.4182 -0.0863  0.5008
    9DOPC   C31 1144   6.900   2.561   5.483 -0.6097  0.3069 -0.1542
    9DOPC   O32 1145   6.898   2.511   5.592 -0.3656  0.4412 -0.1310
    9DOPC   C32 1146   6.919   2.494   5.347 -0.1489  0.5553  0.5814
    9DOPC   H2X 1147   6.818   2.470   5.308 -0.6167 -2.8370  3.3747
    9DOPC   H2Y 1148   6.972   2.565   5.281  1.6550 -2.4463 -1.4580
    9DOPC   C23 1149   7.162   2.998   5.358  0.9019  0.7482 -0.6458
    9DOPC   H3R 1150   7.230   3.080   5.327 -0.7801  2.9369  1.0759
    9DOPC   H3S 1151   7.069   3.049   5.390 -0.1231 -1.4661  0.1155
    9DOPC   C24 1152   7.138   2.906   5.240  0.1683 -0.2452  0.4345
    9DOPC   H4R 1153   7.080   2.819   5.277  0.1873  0.1002  1.3128
    9DOPC   H4S 1154   7.234   2.873   5.195  0.2209  1.6724 -0.9762
    9DOPC   C25 1155   7.038   2.975   5.133 -0.1934 -0.0526  0.0542
    9DOPC   H5R 1156   6.939   2.999   5.179 -2.1703 -1.3192 -3.2024
    9DOPC   H5S 1157   7.005   2.903   5.055  0.4500 -0.4277  0.1261
    9DOPC   C26 1158   7.098   3.102   5.072 -0.3052 -0.2787 -0.1775
    9DOPC   H6R 1159   7.161   3.148   5.151  0.7381 -1.7889 -0.0717
    9DOPC   H6S 1160   7.024   3.178   5.042  0.7313  0.1006 -1.9168
    9DOPC   C27 1161   7.185   3.074   4.946 -0.5971  0.0263 -1.2137
    9DOPC   H7R 1162   7.274   3.024   4.989 -0.5443 -0.1651 -1.5457
    9DOPC   H7S 1163   7.230   3.166   4.904 -2.0217  0.7286 -1.2898
    9DOPC   C28 1164   7.120   2.999   4.831  0.4561  0.2718  0.2524
    9DOPC   H8R 1165   7.093   2.902   4.876 -0.1642  0.2013 -0.2537
    9DOPC   H8S 1166   7.211   2.984   4.768  1.7874 -0.2628  2.2156
    9DOPC   C29 1167   7.010   3.072   4.753 -0.3112  0.0775 -0.5380
    9DOPC   H9R 1168   6.991   3.176   4.786  1.5131  0.7617 -1.5115
    9DOPC  C210 1169   6.946   3.015   4.653  0.2526 -0.5437  0.3371
    9DOPC  H10R 1170   6.868   3.074   4.602  0.7349  0.1303  0.3631
    9DOPC  C211 1171   6.947   2.881   4.596  0.5098 -0.4694  0.2806
    9DOPC  H11R 1172   6.856   2.824   4.624 -0.3531 -1.3889 -3.7522
    9DOPC  H11S 1173   7.031   2.832   4.650  3.8024  4.0872 -0.1468
    9DOPC  C212 1174   6.969   2.854   4.446  1.2093  0.0048 -0.2481
    9DOPC  H12R 1175   6.875   2.880   4.393  1.8353  0.1586 -1.3220
    9DOPC  H12S 1176   7.007   2.752   4.429  1.9667  0.5415 -1.9742
    9DOPC  C213 1177   7.077   2.945   4.388  0.1116  0.0107  0.5568
    9DOPC  H13R 1178   7.176   2.931   4.438  0.5717 -2.8288 -0.9552
    9DOPC  H13S 1179   7.050   3.052   4.399  2.5435  0.8833 -0.9454
    9DOPC  C214 1180   7.099   2.923   4.241  0.3398 -0.1061 -0.3675
    9DOPC  H14R 1181   7.027   2.988   4.187 -0.5028 -2.9019 -2.8696
    9DOPC  H14S 1182   7.056   2.824   4.214 -0.7653  0.2881 -0.1061
    9DOPC  C215 1183   7.242   2.919   4.197  0.1538 -0.2737 -0.3469
    9DOPC  H15R 1184   7.296   2.857   4.271 -0.6734 -0.4112  0.1568
    9DOPC  H15S 1185   7.273   3.025   4.212  0.4261 -0.6014  1.5951
    9DOPC  C216 1186   7.254   2.861   4.061 -0.0424 -0.2399  0.5186
    9DOPC  H16R 1187   7.218   2.758   4.039 -0.4685 -0.0001  0.0733
    9DOPC  H16S 1188   7.364   2.861   4.047  0.1161 -0.7811  1.6724
    9DOPC  C217 1189   7.199   2.956   3.951 -0.0799  0.8156 -0.2362
    9DOPC  H17R 1190   7.244   3.055   3.975  2.3419 -0.2238 -0.2902
    9DOPC  H17S 1191   7.089   2.954   3.970  0.0593  0.7636  0.6094
    9DOPC  C218 1192   7.240   2.917   3.813  0.2352 -0.2439 -0.0187
    9DOPC  H18R 1193   7.202   2.816   3.786 -0.4387  0.0204 -0.0644
    9DOPC  H18S 1194   7.350   2.906   3.797  0.0396  1.1441 -3.1065
    9DOPC  H18T 1195   7.219   2.996   3.737 -1.1511 -0.1400  0.4645
    9DOPC   C33 1196   6.988   2.349   5.361  0.4839 -0.4143 -0.1007
    9DOPC   H3X 1197   6.928   2.290   5.434 -0.1684  0.0667 -0.2393
    9DOPC   H3Y 1198   7.088   2.371   5.402  0.9587 -0.5871 -1.1339
    9DOPC   C34 1199   6.992   2.276   5.235 -0.2387 -0.3190  0.5918
    9DOPC   H4X 1200   7.059   2.312   5.153  0.0036  1.0433  1.3633
    9DOPC   H4Y 1201   6.889   2.281   5.193 -1.0173  1.1554  2.5315
    9DOPC   C35 1202   7.015   2.130   5.265  0.1888 -0.4804 -0.1394
    9DOPC   H5X 1203   6.934   2.083   5.324 -1.2883  1.3153 -0.6518
    9DOPC   H5Y 1204   7.111   2.117   5.320  1.2622  0.3467 -1.7218
    9DOPC   C36 1205   7.027   2.037   5.138  0.3047  0.4602 -0.7508
    9DOPC   H6X 1206   6.926   2.029   5.092 -0.3056 -2.1480  0.8716
    9DOPC   H6Y 1207   7.091   2.093   5.066  1.1648  1.0541  0.4498
    9DOPC   C37 1208   7.094   1.902   5.169  0.1418  0.0283  0.1143
    9DOPC   H7X 1209   7.185   1.922   5.229  0.0699  1.4688 -0.2017
    9DOPC   H7Y 1210   7.022   1.850   5.236  1.2897 -2.7352 -0.6551
    9DOPC   C38 1211   7.120   1.808   5.048 -0.1874 -0.1319  0.1844
    9DOPC   H8X 1212   7.016   1.798   5.008 -0.0674  1.7546 -0.6812
    9DOPC   H8Y 1213   7.159   1.709   5.080  1.2627  0.2174 -0.4182
    9DOPC   C39 1214   7.229   1.859   4.956 -0.2438  0.5065  0.3908
    9DOPC   H9X 1215   7.333   1.858   4.992  0.7503 -0.6198 -2.2165
    9DOPC  C310 1216   7.205   1.909   4.830 -0.5198  0.1635 -0.7787
    9DOPC  H10X 1217   7.295   1.944   4.776 -0.4074 -0.7279 -1.1879
    9DOPC  C311 1218   7.073   1.916   4.759  0.0289 -0.2609 -0.1073
    9DOPC  H11X 1219   7.050   2.022   4.734 -0.4673 -0.5868 -1.0805
    9DOPC  H11Y 1220   6.992   1.890   4.830 -1.6324  0.7629 -1.5666
    9DOPC  C312 1221   7.058   1.828   4.633  0.2307 -0.0274  0.1195
    9DOPC  H12X 1222   7.101   1.728   4.656  2.7032  0.5342 -1.6051
    9DOPC  H12Y 1223   7.112   1.861   4.541 -0.6645 -1.7209 -1.0669
    9DOPC  C313 1224   6.906   1.802   4.596 -0.4966  0.2693  0.1187
    9DOPC  H13X 1225   6.860   1.739   4.676  0.6939 -0.8068  0.0019
    9DOPC  H13Y 1226   6.856   1.899   4.612  0.5864  1.0045 -0.8199
    9DOPC  C314 1227   6.883   1.729   4.467 -0.5477 -0.4418 -0.6890
    9DOPC  H14X 1228   6.780   1.748   4.430 -1.6707 -3.7505  0.3658
    9DOPC  H14Y 1229   6.949   1.784   4.397 -1.0058 -0.6776 -1.3139
    9DOPC  C315 1230   6.911   1.580   4.479 -0.3361  0.9913  0.0917
    9DOPC  H15X 1231   6.860   1.529   4.564  2.3556 -1.9983  0.0986
    9DOPC  H15Y 1232   7.020   1.574   4.499 -0.4648 -0.1780  0.5450
    9DOPC  C316 1233   6.867   1.495   4.357  0.2521  0.3332  0.1537
    9DOPC  H16X 1234   6.765   1.510   4.316  0.7967  1.1173 -0.9810
    9DOPC  H16Y 1235   6.938   1.516   4.274  1.3115 -1.3003  0.5805
    9DOPC  C317 1236   6.883   1.344   4.382 -0.0645 -0.2353  0.1019
    9DOPC  H17X 1237   6.987   1.321   4.414 -0.3591 -0.5630  0.8345
    9DOPC  H17Y 1238   6.812   1.317   4.463  1.3545 -1.2735  1.0548
    9DOPC  C318 1239   6.852   1.268   4.247  0.5995 -0.4872 -0.4160
    9DOPC  H18X 1240   6.748   1.292   4.217 -0.4102 -1.7921  1.7972
    9DOPC  H18Y 1241   6.926   1.295   4.168 -0.1313 -0.1097 -0.9828
    9DOPC  H18Z 1242   6.863   1.161   4.274 -0.1770 -0.3317  0.5516
   10DOPC     N 1243   8.432   6.812   6.003 -0.5203 -0.1388 -0.4697
   10DOPC   C12 1244   8.463   6.859   5.859  0.2178 -0.3974 -0.1503
   10DOPC  H12A 1245   8.377   6.914   5.824  1.0878  0.8162 -0.4231
   10DOPC  H12B 1246   8.473   6.765   5.807 -0.4968 -0.7076  0.2579
   10DOPC   C13 1247   8.314   6.718   6.003 -0.3006  0.0545  0.5453
   10DOPC  H13A 1248   8.224   6.756   5.957 -0.3473 -1.8168 -1.0208
   10DOPC  H13B 1249   8.341   6.631   5.945  1.2845  0.1547  1.0962
   10DOPC  H13C 1250   8.282   6.693   6.104 -0.7800  3.2281  1.2911
   10DOPC   C14 1251   8.410   6.931   6.096  0.0576  0.3246  0.9233
   10DOPC  H14A 1252   8.323   6.987   6.065 -0.5034 -0.1964  1.5296
   10DOPC  H14B 1253   8.405   6.898   6.199  2.1630  0.9079  1.2547
   10DOPC  H14C 1254   8.492   7.000   6.081  0.7486 -0.7708 -0.4910
   10DOPC   C15 1255   8.541   6.729   6.051 -0.3614 -0.2754  0.0689
   10DOPC  H15A 1256   8.572   6.656   5.978  1.2573  1.8794 -1.5430
   10DOPC  H15B 1257   8.520   6.697   6.152  1.1750  1.3518  0.9547
   10DOPC  H15C 1258   8.622   6.800   6.053 -1.1829  0.6847  0.3783
   10DOPC   C11 1259   8.592   6.937   5.829  0.4730 -0.5472 -0.2080
   10DOPC  H11A 1260   8.681   6.875   5.853  0.4581 -1.2552 -1.8736
   10DOPC  H11B 1261   8.586   6.962   5.721 -0.3885 -0.3210 -0.1183
   10DOPC     P 1262   8.508   7.188   5.851  0.4913 -0.1274  0.1866
   10DOPC   O13 1263   8.540   7.308   5.934  0.3707  0.1293 -0.5722
   10DOPC   O14 1264   8.364   7.161   5.834  0.4763  0.4800  0.2489
   10DOPC   O12 1265   8.588   7.057   5.902  0.3619  0.5097 -0.8245
   10DOPC   O11 1266   8.579   7.205   5.706 -0.2901 -0.0011 -0.0673
   10DOPC    C1 1267   8.717   7.222   5.698 -0.1271 -0.3735 -0.4483
   10DOPC    HA 1268   8.773   7.136   5.741  0.1406 -0.3012 -0.6481
   10DOPC    HB 1269   8.745   7.317   5.748 -1.5012  0.3430 -1.0008
   10DOPC    C2 1270   8.761   7.229   5.547 -0.1849 -0.5290 -0.3900
   10DOPC    HS 1271   8.872   7.220   5.540 -0.1258 -0.7836  0.6940
   10DOPC   O21 1272   8.719   7.350   5.485 -0.4861 -0.5836  0.4387
   10DOPC   C21 1273   8.805   7.458   5.500 -0.0480  0.4320  0.1194
   10DOPC   O22 1274   8.900   7.460   5.573 -0.3695 -0.3377 -0.7035
   10DOPC   C22 1275   8.754   7.578   5.423  0.5909 -0.4980  0.6478
   10DOPC   H2R 1276   8.827   7.661   5.424  0.6743 -0.5708  0.5231
   10DOPC   H2S 1277   8.664   7.609   5.482  0.2317 -1.2884  0.5360
   10DOPC    C3 1278   8.710   7.113   5.468  0.2851  0.1459 -0.8358
   10DOPC    HX 1279   8.600   7.106   5.452  0.4458  0.0701 -1.9958
   10DOPC    HY 1280   8.735   7.029   5.537 -1.2250  1.7039  1.7681
   10DOPC   O31 1281   8.774   7.103   5.344  0.0237 -0.0363 -0.2572
   10DOPC   C31 1282   8.888   7.037   5.343 -0.3986  0.1967  0.1790
   10DOPC   O32 1283   8.929   6.964   5.434 -0.0095  0.4992  0.3838
   10DOPC   C32 1284   8.966   7.061   5.220 -0.1029 -0.0537  0.1437
   10DOPC   H2X 1285   8.897   7.094   5.138  1.0063 -0.2748 -0.9001
   10DOPC   H2Y 1286   9.043   7.138   5.241  0.0055  0.2542 -1.2726
   10DOPC   C23 1287   8.702   7.545   5.282  0.5896 -0.2455 -0.4778
   10DOPC   H3R 1288   8.665   7.637   5.230 -1.5322 -0.0248  1.2821
   10DOPC   H3S 1289   8.612   7.481   5.298  0.6893 -0.0639  0.9560
   10DOPC   C24 1290   8.805   7.484   5.183  0.2740  0.2290  0.0794
   10DOPC   H4R 1291   8.848   7.396   5.237 -1.6469  0.2817  1.8165
   10DOPC   H4S 1292   8.886   7.560   5.177 -0.2616  0.7461 -0.7535
   10DOPC   C25 1293   8.740   7.439   5.050  0.4299 -0.3845  0.2748
   10DOPC   H5R 1294   8.691   7.521   4.994 -0.7488 -0.4643  1.1371
   10DOPC   H5S 1295   8.657   7.366   5.060 -1.0749  1.2666  0.3696
   10DOPC   C26 1296   8.841   7.376   4.950  0.3729 -0.0006  0.0686
   10DOPC   H6R 1297   8.902   7.303   5.007 -0.3001  0.2171  1.0852
   10DOPC   H6S 1298   8.908   7.457   4.916 -0.4768  1.6582  2.1385
   10DOPC   C27 1299   8.780   7.304   4.822  0.6627  0.0670  0.1142
   10DOPC   H7R 1300   8.763   7.384   4.747  1.1706  0.0552 -0.0166
   10DOPC   H7S 1301   8.690   7.241   4.836  0.2396  1.0690  2.2795
   10DOPC   C28 1302   8.881   7.207   4.750 -0.4932 -0.0404 -0.0784
   10DOPC   H8R 1303   8.902   7.124   4.821  1.5705  0.4507 -0.0764
   10DOPC   H8S 1304   8.972   7.270   4.743  0.5513 -1.2502  1.8480
   10DOPC   C29 1305   8.817   7.150   4.624 -0.7269 -0.2076 -0.3964
   10DOPC   H9R 1306   8.748   7.065   4.640 -0.1429 -0.3317  1.7346
   10DOPC  C210 1307   8.815   7.207   4.506  0.4962  0.1346  0.7647
   10DOPC  H10R 1308   8.785   7.159   4.412 -0.1466  1.0381  0.4856
   10DOPC  C211 1309   8.901   7.332   4.479 -0.2292  0.6543 -0.2895
   10DOPC  H11R 1310   8.977   7.313   4.401  0.8930  0.8793  0.7131
   10DOPC  H11S 1311   8.955   7.360   4.573  2.4192 -0.4799 -1.3540
   10DOPC  C212 1312   8.825   7.459   4.441  0.5655  0.0898 -0.0929
   10DOPC  H12R 1313   8.886   7.551   4.450 -0.5104  0.8723 -0.6605
   10DOPC  H12S 1314   8.730   7.460   4.500  1.7797  0.1209  1.9688
   10DOPC  C213 1315   8.782   7.463   4.288  0.6135 -0.3435 -0.2738
   10DOPC  H13R 1316   8.707   7.541   4.266 -1.8313 -3.2116 -3.0606
   10DOPC  H13S 1317   8.735   7.364   4.269 -0.6377  0.2952 -0.5762
   10DOPC  C214 1318   8.901   7.473   4.189  0.0110 -0.2118  0.1609
   10DOPC  H14R 1319   8.932   7.368   4.168 -2.8782 -0.9633 -0.8578
   10DOPC  H14S 1320   8.978   7.526   4.249 -0.7633 -0.2014  1.1552
   10DOPC  C215 1321   8.868   7.550   4.064  0.0263 -0.3049  1.3926
   10DOPC  H15R 1322   8.833   7.655   4.076  0.4835  0.1279 -0.6853
   10DOPC  H15S 1323   8.797   7.481   4.014  0.2966 -0.1884  0.8482
   10DOPC  C216 1324   8.986   7.566   3.966 -0.5740 -0.7255 -0.5850
   10DOPC  H16R 1325   9.061   7.484   3.971  0.5282  0.1536 -1.9215
   10DOPC  H16S 1326   9.055   7.649   3.993  1.1667 -1.0319 -3.6503
   10DOPC  C217 1327   8.947   7.589   3.819 -0.2999  0.4167  0.4060
   10DOPC  H17R 1328   8.871   7.514   3.787 -1.4111  1.4910  0.4850
   10DOPC  H17S 1329   9.038   7.582   3.754  0.4480  0.6742  1.4074
   10DOPC  C218 1330   8.890   7.733   3.799 -0.0610  0.4992 -0.3003
   10DOPC  H18R 1331   8.842   7.754   3.700  0.1385  3.6123  0.1852
   10DOPC  H18S 1332   8.965   7.813   3.811 -0.3089  0.6462  0.3103
   10DOPC  H18T 1333   8.811   7.738   3.877  0.4860  0.8134  0.2330
   10DOPC   C33 1334   9.034   6.935   5.171 -0.4900  0.0393  0.0967
   10DOPC   H3X 1335   9.117   6.900   5.235 -0.9918 -0.3866  0.5193
   10DOPC   H3Y 1336   9.085   6.961   5.075 -0.7092  0.4925  0.1006
   10DOPC   C34 1337   8.946   6.807   5.137 -0.0694 -0.1959  0.0847
   10DOPC   H4X 1338   8.869   6.830   5.061  1.4639 -3.0420 -2.5734
   10DOPC   H4Y 1339   8.892   6.756   5.220  1.3109  1.1879  1.9158
   10DOPC   C35 1340   9.037   6.704   5.068  0.3081 -0.3044 -0.3412
   10DOPC   H5X 1341   9.126   6.700   5.134  1.3212  0.4328 -1.6196
   10DOPC   H5Y 1342   9.066   6.745   4.969 -0.4197 -0.5977 -0.6803
   10DOPC   C36 1343   8.982   6.561   5.061  0.4329  0.2295  0.1932
   10DOPC   H6X 1344   8.957   6.535   5.166  0.2803  3.6404  1.1341
   10DOPC   H6Y 1345   8.892   6.555   4.996  1.5494 -1.2452 -1.2966
   10DOPC   C37 1346   9.070   6.456   5.002 -0.3932  0.9460 -0.3472
   10DOPC   H7X 1347   9.092   6.467   4.893  1.6858  0.2471 -0.0379
   10DOPC   H7Y 1348   9.168   6.458   5.054 -0.9336 -0.5258  0.7743
   10DOPC   C38 1349   9.011   6.309   5.017  0.4595 -0.7759 -0.1732
   10DOPC   H8X 1350   8.981   6.298   5.124 -2.9520  1.6492 -0.7359
   10DOPC   H8Y 1351   9.081   6.224   5.002 -1.0994 -2.3039  0.8294
   10DOPC   C39 1352   8.890   6.295   4.922  0.3520  0.5667 -0.5307
   10DOPC   H9X 1353   8.817   6.378   4.925  0.6367  0.7910  0.8936
   10DOPC  C310 1354   8.877   6.194   4.834  0.5713  0.6834  0.4260
   10DOPC  H10X 1355   8.785   6.183   4.776  0.8301 -0.4609  0.2011
   10DOPC  C311 1356   8.983   6.085   4.815  0.1257  0.0394 -0.4793
   10DOPC  H11X 1357   8.999   6.041   4.915  1.1999  0.4497 -0.4611
   10DOPC  H11Y 1358   9.075   6.142   4.791  0.2021  0.3056  0.4174
   10DOPC  C312 1359   8.955   5.974   4.718  0.3286  0.0552 -0.3659
   10DOPC  H12X 1360   9.042   5.908   4.700 -1.9293 -2.8841 -1.3992
   10DOPC  H12Y 1361   8.917   6.012   4.621 -1.1228  0.6684  0.4100
   10DOPC  C313 1362   8.837   5.875   4.765 -0.5393  1.0697  0.9693
   10DOPC  H13X 1363   8.858   5.829   4.864 -1.6323 -0.1133  0.6786
   10DOPC  H13Y 1364   8.742   5.929   4.787 -1.7779  0.4903 -2.3674
   10DOPC  C314 1365   8.814   5.774   4.649 -0.8364  0.1124  0.6914
   10DOPC  H14X 1366   8.770   5.828   4.562 -0.3983 -1.5849 -0.6239
   10DOPC  H14Y 1367   8.908   5.728   4.613 -1.1059  0.2481 -0.2343
   10DOPC  C315 1368   8.709   5.658   4.675  0.5901  0.4426 -0.2169
   10DOPC  H15X 1369   8.616   5.704   4.716 -0.7538 -1.0569 -1.4238
   10DOPC  H15Y 1370   8.757   5.600   4.757  2.0574  1.4016 -0.3526
   10DOPC  C316 1371   8.659   5.580   4.553  0.3352 -0.0254 -0.0921
   10DOPC  H16X 1372   8.607   5.663   4.500 -0.2259  1.4694  2.5774
   10DOPC  H16Y 1373   8.744   5.539   4.496  1.5907 -1.7280  2.7886
   10DOPC  C317 1374   8.554   5.469   4.582 -0.1448  0.0714  0.1648
   10DOPC  H17X 1375   8.462   5.515   4.623 -1.1051 -0.6859 -1.0460
   10DOPC  H17Y 1376   8.527   5.416   4.488 -0.4490 -0.1117  0.3523
   10DOPC  C318 1377   8.598   5.366   4.690  0.0716 -0.4100 -0.0835
   10DOPC  H18X 1378   8.685   5.303   4.663  0.1148 -0.3024 -0.1976
   10DOPC  H18Y 1379   8.625   5.414   4.787 -1.3678 -0.9572  0.6124
   10DOPC  H18Z 1380   8.508   5.308   4.719  0.7426 -0.8914  1.1128
   11DOPC     N 1381   5.337  12.086   6.216 -0.5161 -0.7567 -0.3050
   11DOPC   C12 1382   5.342  11.935   6.198  0.3084  0.0197  0.0342
   11DOPC  H12A 1383   5.421  11.909   6.129 -0.3275  0.3931 -0.8531
   11DOPC  H12B 1384   5.254  11.895   6.150  0.9819 -2.0593  0.4192
   11DOPC   C13 1385   5.460  12.148   6.271 -0.0253 -0.3964  0.3111
   11DOPC  H13A 1386   5.440  12.253   6.286  0.3366 -0.0056 -1.6287
   11DOPC  H13B 1387   5.495  12.096   6.359 -0.2701  0.9042  1.2018
   11DOPC  H13C 1388   5.540  12.139   6.198 -1.5547  2.0014 -1.8425
   11DOPC   C14 1389   5.225  12.124   6.314 -0.4640 -0.7296  0.7154
   11DOPC  H14A 1390   5.247  12.077   6.408  1.4027  0.3045  0.8306
   11DOPC  H14B 1391   5.221  12.230   6.335  1.2815 -0.6392  0.7053
   11DOPC  H14C 1392   5.127  12.096   6.276 -0.8552  2.4080 -0.9361
   11DOPC   C15 1393   5.316  12.160   6.083 -0.0717 -0.1151 -0.0763
   11DOPC  H15A 1394   5.293  12.265   6.092 -3.6107 -0.6870 -0.8996
   11DOPC  H15B 1395   5.238  12.120   6.021 -1.2829  2.8130 -0.5933
   11DOPC  H15C 1396   5.406  12.149   6.024  0.4024 -0.4151  0.6905
   11DOPC   C11 1397   5.369  11.847   6.321  0.0355  0.4058  0.2775
   11DOPC  H11A 1398   5.307  11.883   6.407 -0.0546  0.4683  0.1864
   11DOPC  H11B 1399   5.333  11.745   6.296  0.1585  0.4659 -0.1454
   11DOPC     P 1400   5.607  11.750   6.307  0.2821 -0.0870  0.1110
   11DOPC   O13 1401   5.569  11.607   6.326 -0.8925 -0.7990 -0.2227
   11DOPC   O14 1402   5.745  11.778   6.355 -0.0105  0.2517 -0.1144
   11DOPC   O12 1403   5.503  11.848   6.363 -0.4272 -0.2209  0.0713
   11DOPC   O11 1404   5.597  11.787   6.151 -0.2683  0.2523 -0.6252
   11DOPC    C1 1405   5.584  11.692   6.051  0.0422 -0.5412 -0.3512
   11DOPC    HA 1406   5.521  11.731   5.968 -0.4835  0.9152  0.6838
   11DOPC    HB 1407   5.535  11.600   6.089 -2.9384  0.7109 -0.9051
   11DOPC    C2 1408   5.726  11.646   5.992  0.3530 -0.6272 -0.4191
   11DOPC    HS 1409   5.781  11.624   6.086 -0.1262 -2.3245 -0.4999
   11DOPC   O21 1410   5.796  11.743   5.914  0.2640  0.1749  0.3993
   11DOPC   C21 1411   5.929  11.737   5.921 -0.3758  0.1768 -0.1759
   11DOPC   O22 1412   5.994  11.666   5.998  0.3655 -0.7083  0.1856
   11DOPC   C22 1413   5.986  11.838   5.808 -0.0554 -0.7070 -0.3121
   11DOPC   H2R 1414   5.904  11.906   5.777 -0.1515 -1.1683 -1.1031
   11DOPC   H2S 1415   5.986  11.776   5.715 -0.5571  0.9472 -1.4463
   11DOPC    C3 1416   5.722  11.510   5.921  0.1104  0.0785  0.1392
   11DOPC    HX 1417   5.678  11.429   5.985 -1.4977 -0.7182 -1.8465
   11DOPC    HY 1418   5.827  11.480   5.899  0.6888  0.1791  2.4472
   11DOPC   O31 1419   5.646  11.518   5.796 -0.5685  0.8113  0.2385
   11DOPC   C31 1420   5.520  11.496   5.804  0.1937 -0.8782  0.3491
   11DOPC   O32 1421   5.461  11.451   5.896 -0.1670  0.2816  0.0944
   11DOPC   C32 1422   5.443  11.522   5.670 -0.9079 -0.2001 -0.5671
   11DOPC   H2X 1423   5.517  11.577   5.608  0.0239 -0.8500 -0.0507
   11DOPC   H2Y 1424   5.428  11.428   5.612 -0.9983 -0.6691  0.2004
   11DOPC   C23 1425   6.117  11.905   5.841 -0.4162  0.2263  0.2351
   11DOPC   H3R 1426   6.203  11.839   5.865 -1.5338 -1.0372  0.8950
   11DOPC   H3S 1427   6.101  11.960   5.936  1.1417  0.0751  0.6016
   11DOPC   C24 1428   6.157  12.005   5.729  0.0051 -0.3541 -0.0817
   11DOPC   H4R 1429   6.221  12.091   5.759  1.2927 -1.0642 -0.7323
   11DOPC   H4S 1430   6.054  12.042   5.708 -0.0689  0.2580  1.2469
   11DOPC   C25 1431   6.235  11.941   5.621 -0.4224 -0.2607  0.6214
   11DOPC   H5R 1432   6.193  11.840   5.605 -1.4536  0.0354  1.3708
   11DOPC   H5S 1433   6.338  11.921   5.658  0.4823  3.8528  0.8606
   11DOPC   C26 1434   6.231  12.011   5.488  0.9514 -0.0064 -0.0162
   11DOPC   H6R 1435   6.305  11.960   5.423  0.3153 -2.4241  1.0643
   11DOPC   H6S 1436   6.258  12.118   5.507  2.8799 -0.5731  0.7154
   11DOPC   C27 1437   6.101  11.990   5.414  0.2320  0.4600  0.0430
   11DOPC   H7R 1438   6.022  12.034   5.479  0.3280 -2.2851  2.2285
   11DOPC   H7S 1439   6.078  11.882   5.423 -1.4612  0.7268 -0.6142
   11DOPC   C28 1440   6.107  12.028   5.266 -0.3001 -0.5309 -0.0193
   11DOPC   H8R 1441   6.184  11.969   5.213 -1.1739  0.3670 -2.4290
   11DOPC   H8S 1442   6.135  12.136   5.264 -0.4977 -0.3737  2.4612
   11DOPC   C29 1443   5.960  12.016   5.218 -0.2712 -0.0417  0.8703
   11DOPC   H9R 1444   5.883  12.056   5.285 -3.4349 -0.8620 -1.9721
   11DOPC  C210 1445   5.920  11.954   5.106  0.2061  0.4795  0.5943
   11DOPC  H10R 1446   5.813  11.948   5.081  0.5810 -1.6340 -0.7992
   11DOPC  C211 1447   6.007  11.904   4.999  0.0617  0.4739  0.8240
   11DOPC  H11R 1448   5.992  11.795   4.986 -2.5088  1.0541 -2.3062
   11DOPC  H11S 1449   6.113  11.925   5.025  0.5329  1.3671 -1.4958
   11DOPC  C212 1450   5.989  11.972   4.860  0.0213 -0.1227 -0.6211
   11DOPC  H12R 1451   6.025  12.075   4.881 -2.6297  0.7063  0.1802
   11DOPC  H12S 1452   5.880  11.967   4.840 -0.4309  0.0808  1.5013
   11DOPC  C213 1453   6.066  11.902   4.747  0.9184 -0.1684 -0.2009
   11DOPC  H13R 1454   6.030  11.797   4.739 -1.4484  0.4697  0.9860
   11DOPC  H13S 1455   6.174  11.890   4.768  0.7011 -2.6987 -0.2007
   11DOPC  C214 1456   6.032  11.963   4.607 -0.0655  0.0735 -0.6935
   11DOPC  H14R 1457   6.045  12.073   4.620 -3.8750  0.5452  0.4909
   11DOPC  H14S 1458   5.923  11.950   4.588 -0.9539  1.0255  2.8722
   11DOPC  C215 1459   6.118  11.902   4.500 -0.4662 -0.3661 -0.5985
   11DOPC  H15R 1460   6.081  11.798   4.486  0.4746 -0.7991 -0.0375
   11DOPC  H15S 1461   6.219  11.897   4.546 -1.3303  0.9337  1.6003
   11DOPC  C216 1462   6.119  11.989   4.379  0.3426  0.4103  0.3521
   11DOPC  H16R 1463   6.172  12.083   4.402  2.2230 -0.4842 -0.1669
   11DOPC  H16S 1464   6.018  12.030   4.355  0.7137  2.8532  2.5117
   11DOPC  C217 1465   6.183  11.916   4.266  0.2450 -0.5795 -0.0083
   11DOPC  H17R 1466   6.187  11.986   4.181  3.2260  0.9957  1.2755
   11DOPC  H17S 1467   6.122  11.833   4.225 -0.9582  1.0932 -1.7324
   11DOPC  C218 1468   6.324  11.884   4.306  0.4852 -0.3447 -0.5852
   11DOPC  H18R 1469   6.369  11.976   4.348  1.0179 -0.4408 -0.9416
   11DOPC  H18S 1470   6.381  11.868   4.212 -1.9758  1.8750 -2.5845
   11DOPC  H18T 1471   6.330  11.801   4.380 -3.9104 -0.0814  0.3376
   11DOPC   C33 1472   5.328  11.619   5.690  0.3141 -0.2131 -0.4042
   11DOPC   H3X 1473   5.368  11.706   5.746 -0.8063 -0.4806  0.8492
   11DOPC   H3Y 1474   5.251  11.572   5.753 -0.6745 -0.3618 -1.6813
   11DOPC   C34 1475   5.264  11.658   5.556 -0.9486  0.1621  0.0139
   11DOPC   H4X 1476   5.244  11.568   5.494 -0.1542 -0.5529  0.7686
   11DOPC   H4Y 1477   5.344  11.710   5.500 -0.2490 -0.2779  0.5832
   11DOPC   C35 1478   5.134  11.741   5.565 -0.2472 -0.1669  0.5361
   11DOPC   H5X 1479   5.120  11.797   5.660 -1.9775  2.3827 -1.1171
   11DOPC   H5Y 1480   5.045  11.675   5.554  1.1303 -1.7777 -1.7490
   11DOPC   C36 1481   5.118  11.835   5.436  0.1377 -0.6360  0.3474
   11DOPC   H6X 1482   5.109  11.783   5.338 -2.5648  0.9036 -0.3323
   11DOPC   H6Y 1483   5.020  11.884   5.454 -1.9459 -3.4555 -2.2418
   11DOPC   C37 1484   5.232  11.935   5.424  0.2534  0.3324  0.1630
   11DOPC   H7X 1485   5.257  11.970   5.527  0.3610  0.9025 -0.0537
   11DOPC   H7Y 1486   5.313  11.865   5.395 -1.7131 -2.8776  1.9086
   11DOPC   C38 1487   5.221  12.059   5.335 -0.2138  0.0766  0.3485
   11DOPC   H8X 1488   5.195  12.020   5.235  0.2699 -1.2924  0.7336
   11DOPC   H8Y 1489   5.318  12.113   5.323 -1.2174  2.0890  0.8107
   11DOPC   C39 1490   5.111  12.146   5.384  0.4977  0.5151 -0.0039
   11DOPC   H9X 1491   5.062  12.106   5.474 -0.1960  0.4189 -0.4123
   11DOPC  C310 1492   5.100  12.271   5.350  0.5287 -0.3967  0.3932
   11DOPC  H10X 1493   5.023  12.331   5.400  0.5661  1.1604 -1.2727
   11DOPC  C311 1494   5.171  12.336   5.236 -0.9829  0.4347 -0.3187
   11DOPC  H11X 1495   5.239  12.260   5.192 -2.0568 -1.5979  1.3425
   11DOPC  H11Y 1496   5.235  12.413   5.284  1.8658 -0.8752 -1.7779
   11DOPC  C312 1497   5.063  12.380   5.131 -0.3211 -0.0022 -0.1366
   11DOPC  H12X 1498   5.017  12.472   5.173 -0.3877 -1.1044  2.3764
   11DOPC  H12Y 1499   4.979  12.309   5.117  0.5400 -1.1625  0.4132
   11DOPC  C313 1500   5.135  12.405   4.997 -0.5226  0.3892 -0.4651
   11DOPC  H13X 1501   5.229  12.463   5.010 -0.4495  0.0191  0.6853
   11DOPC  H13Y 1502   5.172  12.302   4.977 -1.0571 -0.2673  1.7299
   11DOPC  C314 1503   5.046  12.456   4.878  0.2722 -0.7193  0.0959
   11DOPC  H14X 1504   5.105  12.442   4.786 -1.1021 -2.3302 -0.5837
   11DOPC  H14Y 1505   4.956  12.393   4.866 -0.4497  0.1825  0.5593
   11DOPC  C315 1506   5.004  12.601   4.882 -0.4648 -0.5348 -0.1831
   11DOPC  H15X 1507   5.097  12.661   4.892  0.7050 -2.3988  0.6087
   11DOPC  H15Y 1508   4.939  12.623   4.969 -0.2387 -0.0985 -0.1269
   11DOPC  C316 1509   4.939  12.643   4.749 -0.4869  0.2952  0.0378
   11DOPC  H16X 1510   5.013  12.614   4.672 -1.3097 -1.9280 -0.0105
   11DOPC  H16Y 1511   4.840  12.591   4.742 -0.6849  0.5188  1.0064
   11DOPC  C317 1512   4.914  12.794   4.731  1.0240 -0.1744 -0.1123
   11DOPC  H17X 1513   4.838  12.834   4.801  0.9538  0.9651 -0.8066
   11DOPC  H17Y 1514   5.006  12.851   4.756 -0.1533  0.3633  3.5307
   11DOPC  C318 1515   4.858  12.837   4.592  0.1600 -0.1951  0.4236
   11DOPC  H18X 1516   4.939  12.819   4.517  0.9039  1.2285  0.8406
   11DOPC  H18Y 1517   4.764  12.780   4.577 -0.7646  1.6573 -1.3036
   11DOPC  H18Z 1518   4.829  12.944   4.587  1.2924  0.1623  1.0759
   12DOPC     N 1519   9.770  11.166   6.124 -0.5592  0.3734  0.2619
   12DOPC   C12 1520   9.906  11.129   6.054 -0.5234 -0.1195 -0.4631
   12DOPC  H12A 1521   9.957  11.052   6.108  0.4308 -2.3457 -4.1825
   12DOPC  H12B 1522   9.974  11.213   6.048  0.4367 -0.9378 -1.5765
   12DOPC   C13 1523   9.774  11.232   6.255  0.6803 -0.6758 -0.4328
   12DOPC  H13A 1524   9.855  11.303   6.255  1.2522 -1.3014 -1.5625
   12DOPC  H13B 1525   9.683  11.284   6.281  0.8579 -0.2126 -0.7259
   12DOPC  H13C 1526   9.787  11.158   6.333 -2.0179  0.0262  0.8187
   12DOPC   C14 1527   9.681  11.041   6.142 -0.1180 -0.4337 -0.0129
   12DOPC  H14A 1528   9.584  11.064   6.183 -0.4162 -3.2410  1.0611
   12DOPC  H14B 1529   9.673  10.992   6.046  1.0531 -1.2881  0.2971
   12DOPC  H14C 1530   9.726  10.978   6.218 -0.1171  1.0631  1.2636
   12DOPC   C15 1531   9.703  11.269   6.041 -0.2323 -0.0417 -0.7056
   12DOPC  H15A 1532   9.675  11.227   5.946  2.3785 -2.7288 -0.4227
   12DOPC  H15B 1533   9.765  11.358   6.033 -0.0615 -0.1049 -0.1197
   12DOPC  H15C 1534   9.610  11.302   6.085  0.3190 -1.3407  1.5589
   12DOPC   C11 1535   9.905  11.067   5.916 -0.3652 -0.7717  0.3665
   12DOPC  H11A 1536   9.833  11.121   5.853 -0.2143 -1.1491 -0.1339
   12DOPC  H11B 1537  10.004  11.076   5.866  0.1731  0.4404  1.5587
   12DOPC     P 1538   9.964  10.824   5.969  0.3577  0.0050 -0.1238
   12DOPC   O13 1539   9.882  10.707   6.007  0.0243  0.1587  0.1921
   12DOPC   O14 1540  10.046  10.879   6.077  0.0975  0.4732  0.1643
   12DOPC   O12 1541   9.855  10.933   5.925  0.2296  0.7828  0.1541
   12DOPC   O11 1542  10.049  10.804   5.837 -0.1096 -0.1806 -0.2158
   12DOPC    C1 1543   9.998  10.833   5.706  0.5812 -0.3328  0.6618
   12DOPC    HA 1544  10.073  10.835   5.624 -0.6724 -0.1118 -0.5146
   12DOPC    HB 1545   9.953  10.935   5.705 -0.1302 -0.6357 -1.2067
   12DOPC    C2 1546   9.889  10.725   5.654 -0.2044  0.3195 -0.1122
   12DOPC    HS 1547   9.821  10.697   5.737 -0.3867  2.8515  0.6925
   12DOPC   O21 1548   9.954  10.602   5.605  0.4603  0.0287  0.9635
   12DOPC   C21 1549   9.875  10.498   5.586  0.4834 -0.1650 -0.0307
   12DOPC   O22 1550   9.756  10.492   5.624  0.3724  0.0072 -0.1135
   12DOPC   C22 1551   9.944  10.385   5.511 -0.3886  0.5687 -0.3647
   12DOPC   H2R 1552   9.924  10.295   5.573 -1.6141  0.9272 -0.2144
   12DOPC   H2S 1553  10.055  10.396   5.507 -0.3281  0.2611  0.2682
   12DOPC    C3 1554   9.804  10.781   5.541 -0.0007 -0.2586  0.4192
   12DOPC    HX 1555   9.750  10.874   5.568  1.5650  0.4922  1.0893
   12DOPC    HY 1556   9.727  10.711   5.501 -0.7500  1.6593 -1.6993
   12DOPC   O31 1557   9.897  10.804   5.427  0.4836 -0.0473 -0.0287
   12DOPC   C31 1558   9.909  10.932   5.394  0.4428 -0.1793 -0.3469
   12DOPC   O32 1559   9.870  11.028   5.453 -0.2320 -0.4865  0.1169
   12DOPC   C32 1560   9.984  10.938   5.265 -0.0309  0.4418  0.0668
   12DOPC   H2X 1561  10.094  10.930   5.275  0.0857  0.8774 -0.7755
   12DOPC   H2Y 1562   9.954  10.844   5.214 -1.7742 -0.1738  2.0755
   12DOPC   C23 1563   9.872  10.370   5.369 -0.3450 -0.6079  0.0671
   12DOPC   H3R 1564   9.763  10.383   5.387 -0.2895 -0.6654  0.4562
   12DOPC   H3S 1565   9.898  10.271   5.327  0.6630  0.2220 -1.3286
   12DOPC   C24 1566   9.939  10.467   5.267  0.0923 -0.1479  0.1246
   12DOPC   H4R 1567  10.044  10.432   5.268 -0.1652 -0.9541  0.8295
   12DOPC   H4S 1568   9.937  10.572   5.302  1.5671  0.7569 -2.2531
   12DOPC   C25 1569   9.872  10.466   5.125  0.2311  0.2934  0.9792
   12DOPC   H5R 1570   9.762  10.454   5.132 -0.0869  0.0072 -2.5279
   12DOPC   H5S 1571   9.919  10.374   5.086 -0.3934 -0.2359  1.4417
   12DOPC   C26 1572   9.924  10.572   5.023  0.0993  0.3993 -0.1531
   12DOPC   H6R 1573   9.902  10.670   5.072  0.0060  0.3266 -0.0499
   12DOPC   H6S 1574   9.867  10.554   4.929 -1.8580  0.4918  0.9551
   12DOPC   C27 1575  10.077  10.588   5.006 -0.5400  0.6476  0.2543
   12DOPC   H7R 1576  10.107  10.491   4.961  0.6429  1.9533 -1.9683
   12DOPC   H7S 1577  10.104  10.590   5.114 -3.1492  0.2579  0.9700
   12DOPC   C28 1578  10.132  10.717   4.935 -0.1496 -0.1004  0.2929
   12DOPC   H8R 1579  10.242  10.721   4.950  0.4206  1.3379 -3.1630
   12DOPC   H8S 1580  10.100  10.815   4.976  1.2260  1.3164 -1.8178
   12DOPC   C29 1581  10.101  10.706   4.786 -0.3371 -0.3848 -0.3257
   12DOPC   H9R 1582  10.161  10.633   4.730  0.7847  1.3044 -1.4261
   12DOPC  C210 1583  10.015  10.789   4.721  0.5204  0.4301 -0.1233
   12DOPC  H10R 1584   9.998  10.776   4.613 -2.0886  1.3989  0.0888
   12DOPC  C211 1585   9.942  10.910   4.771  0.0337 -0.3647 -0.3491
   12DOPC  H11R 1586   9.931  10.911   4.882  0.8905 -0.6526 -0.2533
   12DOPC  H11S 1587   9.840  10.932   4.733 -0.4693 -0.3566  0.9385
   12DOPC  C212 1588  10.021  11.040   4.743 -0.4850  0.1219 -0.5195
   12DOPC  H12R 1589  10.123  11.026   4.784 -0.3515 -0.6264 -1.0935
   12DOPC  H12S 1590   9.980  11.121   4.808 -1.5703 -0.1156 -0.8912
   12DOPC  C213 1591  10.009  11.082   4.595 -0.2423  0.3937 -0.3523
   12DOPC  H13R 1592  10.032  11.002   4.521 -1.3633  1.3456 -1.7937
   12DOPC  H13S 1593  10.086  11.161   4.579  1.7071 -1.3196  0.0698
   12DOPC  C214 1594   9.876  11.148   4.553  0.4414  0.2842 -0.3753
   12DOPC  H14R 1595   9.855  11.224   4.631 -1.5609 -0.3878 -0.2040
   12DOPC  H14S 1596   9.793  11.076   4.569  1.7992 -0.8078  2.4704
   12DOPC  C215 1597   9.873  11.217   4.412 -0.0504 -0.7305  0.3962
   12DOPC  H15R 1598   9.972  11.269   4.404  0.8371 -2.4511 -0.2481
   12DOPC  H15S 1599   9.785  11.284   4.402 -0.3948 -1.3138 -0.5208
   12DOPC  C216 1600   9.864  11.112   4.299  0.0629 -0.3562 -0.2767
   12DOPC  H16R 1601   9.772  11.052   4.312 -0.7358  0.8514 -0.2360
   12DOPC  H16S 1602   9.952  11.044   4.298  1.6623  1.5206  1.8867
   12DOPC  C217 1603   9.876  11.183   4.157  0.1512 -0.0592 -0.2057
   12DOPC  H17R 1604   9.897  11.106   4.081  0.6005  1.7881 -2.0409
   12DOPC  H17S 1605   9.965  11.251   4.157  0.9481 -0.6408  5.0789
   12DOPC  C218 1606   9.755  11.266   4.120 -0.1975  0.4362 -0.7483
   12DOPC  H18R 1607   9.785  11.288   4.015 -0.4089 -0.9063 -1.1117
   12DOPC  H18S 1608   9.748  11.361   4.177 -1.2596 -0.3551  0.4947
   12DOPC  H18T 1609   9.662  11.205   4.125  0.7013 -1.1924 -2.5418
   12DOPC   C33 1610   9.937  11.061   5.188  0.5433  0.3679 -0.7260
   12DOPC   H3X 1611  10.017  11.091   5.117 -0.3880  2.5710 -0.9347
   12DOPC   H3Y 1612   9.920  11.147   5.257 -3.0652 -1.9213  1.5613
   12DOPC   C34 1613   9.797  11.037   5.117 -0.7107  0.1892 -0.2855
   12DOPC   H4X 1614   9.719  11.016   5.193 -0.9567 -0.6846 -0.7606
   12DOPC   H4Y 1615   9.812  10.949   5.050 -0.8396 -0.4124  0.4721
   12DOPC   C35 1616   9.756  11.159   5.033 -0.5614  0.7896  0.5364
   12DOPC   H5X 1617   9.836  11.179   4.959 -2.5472  1.9121 -1.4491
   12DOPC   H5Y 1618   9.750  11.247   5.101  0.1321  2.4433 -1.4417
   12DOPC   C36 1619   9.624  11.133   4.958  0.3159 -0.6435  0.1509
   12DOPC   H6X 1620   9.649  11.043   4.899  0.7311 -0.3961 -0.0604
   12DOPC   H6Y 1621   9.547  11.106   5.033 -0.2985 -1.1094 -0.6346
   12DOPC   C37 1622   9.589  11.257   4.875  0.7604  0.8300 -0.2186
   12DOPC   H7X 1623   9.545  11.330   4.946  1.2482  1.6262 -0.7162
   12DOPC   H7Y 1624   9.678  11.296   4.821  1.9439  0.0439  1.0996
   12DOPC   C38 1625   9.481  11.235   4.772  0.4176  0.1423 -0.1775
   12DOPC   H8X 1626   9.409  11.166   4.821 -1.2361  1.9579  0.0936
   12DOPC   H8Y 1627   9.529  11.189   4.683 -1.5796  0.2606 -1.3656
   12DOPC   C39 1628   9.401  11.367   4.756 -0.3620 -0.0678 -0.0679
   12DOPC   H9X 1629   9.338  11.400   4.840 -1.4431  0.8704 -1.2048
   12DOPC  C310 1630   9.402  11.434   4.639 -0.4240  0.0279 -0.4177
   12DOPC  H10X 1631   9.337  11.522   4.627  3.1039  2.8590 -0.5065
   12DOPC  C311 1632   9.476  11.386   4.516  0.3286  0.9054 -0.3474
   12DOPC  H11X 1633   9.578  11.356   4.547 -0.7539 -1.3391  1.3209
   12DOPC  H11Y 1634   9.490  11.475   4.452  1.5984  2.4163  1.8869
   12DOPC  C312 1635   9.401  11.275   4.432  0.2739  0.0171  0.3230
   12DOPC  H12X 1636   9.347  11.335   4.355  1.5927 -0.6483 -1.1823
   12DOPC  H12Y 1637   9.329  11.220   4.496  1.4436 -1.0771  0.7406
   12DOPC  C313 1638   9.505  11.177   4.365  0.0096 -0.5297 -0.3687
   12DOPC  H13X 1639   9.576  11.247   4.316 -0.5261  2.0007  2.2303
   12DOPC  H13Y 1640   9.548  11.129   4.455  0.1373  2.7852  1.4575
   12DOPC  C314 1641   9.452  11.076   4.261 -0.3747 -0.5711 -0.1013
   12DOPC  H14X 1642   9.423  11.137   4.173 -0.4117 -0.1071  0.2284
   12DOPC  H14Y 1643   9.537  11.014   4.223  0.6775  1.9818 -2.2397
   12DOPC  C315 1644   9.330  10.990   4.307 -0.4869 -0.8159  0.5265
   12DOPC  H15X 1645   9.238  11.051   4.322 -1.5444 -2.2021 -0.1215
   12DOPC  H15Y 1646   9.362  10.941   4.401  0.9592 -1.1086 -0.0949
   12DOPC  C316 1647   9.294  10.880   4.198  0.0461 -0.4065  0.3421
   12DOPC  H16X 1648   9.255  10.930   4.107  0.4264 -0.4451  0.1522
   12DOPC  H16Y 1649   9.388  10.827   4.171 -0.6048 -0.4318 -2.1424
   12DOPC  C317 1650   9.189  10.782   4.245  0.0154  0.1923 -0.0367
   12DOPC  H17X 1651   9.224  10.729   4.336 -1.6222 -0.5012  0.2385
   12DOPC  H17Y 1652   9.091  10.832   4.263 -1.2742 -1.1085 -2.9313
   12DOPC  C318 1653   9.165  10.679   4.139  0.2855  0.3223 -0.5895
   12DOPC  H18X 1654   9.139  10.725   4.042 -1.4161 -1.5316 -1.0721
   12DOPC  H18Y 1655   9.262  10.627   4.120 -0.4824 -1.2655 -0.3328
   12DOPC  H18Z 1656   9.088  10.605   4.167 -0.0945  1.4951  1.6877
   13DOPC     N 1657   4.394   6.383   6.362  0.0657 -0.3631 -0.0787
   13DOPC   C12 1658   4.480   6.264   6.348  0.2075  0.7887 -0.4601
   13DOPC  H12A 1659   4.451   6.217   6.255  0.8741  1.4311 -0.9973
   13DOPC  H12B 1660   4.454   6.192   6.425  1.5667  0.4386 -0.3085
   13DOPC   C13 1661   4.404   6.482   6.245 -0.2489  0.4864  0.3894
   13DOPC  H13A 1662   4.502   6.527   6.233 -0.2447 -0.0714 -2.5297
   13DOPC  H13B 1663   4.387   6.418   6.159  1.3349 -0.9131  1.0410
   13DOPC  H13C 1664   4.335   6.563   6.260 -1.4430 -0.6172  0.9865
   13DOPC   C14 1665   4.437   6.462   6.486 -0.6033  0.2458  0.0072
   13DOPC  H14A 1666   4.536   6.501   6.471 -0.4455  0.8885  2.3104
   13DOPC  H14B 1667   4.372   6.548   6.483  0.0832  0.7548 -2.4369
   13DOPC  H14C 1668   4.424   6.407   6.579 -1.9885  0.6713  0.0993
   13DOPC   C15 1669   4.249   6.350   6.373  0.1388  0.0373  0.5768
   13DOPC  H15A 1670   4.187   6.435   6.397 -1.4367 -1.0276  0.4118
   13DOPC  H15B 1671   4.229   6.273   6.446  0.4944  0.7163  1.4016
   13DOPC  H15C 1672   4.206   6.305   6.285 -0.3052 -0.5060  1.0606
   13DOPC   C11 1673   4.639   6.277   6.339 -0.0138  0.3279  0.6671
   13DOPC  H11A 1674   4.647   6.341   6.248 -1.1100  0.6633  0.7908
   13DOPC  H11B 1675   4.683   6.325   6.429 -0.1602  2.5533 -0.3667
   13DOPC     P 1676   4.771   6.090   6.215 -0.3404 -0.4742  0.4108
   13DOPC   O13 1677   4.696   5.984   6.143  0.3001 -0.4439  0.0399
   13DOPC   O14 1678   4.898   6.059   6.279 -0.3085  0.0206  0.1398
   13DOPC   O12 1679   4.681   6.148   6.327 -0.7341  0.2939 -0.2421
   13DOPC   O11 1680   4.785   6.209   6.117  0.2457 -0.1978  0.4231
   13DOPC    C1 1681   4.849   6.199   5.988  0.2150 -0.0779  0.1012
   13DOPC    HA 1682   4.874   6.092   5.967  1.1817 -0.0501  1.0381
   13DOPC    HB 1683   4.947   6.250   5.992 -0.2233  0.7128  2.7718
   13DOPC    C2 1684   4.742   6.245   5.875  0.1628  0.2537 -0.2546
   13DOPC    HS 1685   4.762   6.195   5.778 -2.7354  1.0232 -1.3478
   13DOPC   O21 1686   4.753   6.395   5.851  0.1257  0.1795 -0.1511
   13DOPC   C21 1687   4.874   6.415   5.795  0.2204 -0.3444  0.2644
   13DOPC   O22 1688   4.938   6.330   5.744 -0.4951 -0.0600 -0.1296
   13DOPC   C22 1689   4.912   6.562   5.812  0.0932 -0.2541 -0.5569
   13DOPC   H2R 1690   5.021   6.560   5.832 -0.0577 -2.2085  0.2397
   13DOPC   H2S 1691   4.858   6.599   5.902 -0.6887 -0.5164 -0.9172
   13DOPC    C3 1692   4.596   6.197   5.908  0.1290  0.1233  0.2463
   13DOPC    HX 1693   4.559   6.237   6.005 -0.1671  0.7640 -0.1322
   13DOPC    HY 1694   4.594   6.086   5.914 -4.1077 -0.0496 -0.8993
   13DOPC   O31 1695   4.510   6.247   5.806  0.5687  0.7089 -0.1097
   13DOPC   C31 1696   4.396   6.298   5.842 -0.2928  0.5889  0.5183
   13DOPC   O32 1697   4.343   6.300   5.952 -0.1621  0.0259  0.6451
   13DOPC   C32 1698   4.328   6.375   5.724 -0.7680 -0.7040  0.2223
   13DOPC   H2X 1699   4.224   6.336   5.728 -0.1577 -2.4162  0.0871
   13DOPC   H2Y 1700   4.332   6.484   5.747 -1.2695 -0.4340 -0.9303
   13DOPC   C23 1701   4.895   6.659   5.691 -0.1678 -1.0793 -0.1473
   13DOPC   H3R 1702   4.927   6.599   5.603 -0.4430 -1.1793 -0.1819
   13DOPC   H3S 1703   4.959   6.750   5.688 -0.0231 -1.1936 -1.3436
   13DOPC   C24 1704   4.747   6.709   5.668  0.4335 -0.1543  0.3354
   13DOPC   H4R 1705   4.722   6.756   5.765  1.0340 -0.3305  0.5797
   13DOPC   H4S 1706   4.672   6.632   5.639 -0.7045  1.0328  0.0518
   13DOPC   C25 1707   4.733   6.815   5.557  0.1424  1.0896  0.4029
   13DOPC   H5R 1708   4.761   6.771   5.459 -0.0680  0.7521  0.4898
   13DOPC   H5S 1709   4.807   6.893   5.581  0.5313  1.2009 -1.0827
   13DOPC   C26 1710   4.589   6.874   5.546  0.1938 -0.3947 -0.1246
   13DOPC   H6R 1711   4.513   6.793   5.549 -0.5697  0.1778 -2.1362
   13DOPC   H6S 1712   4.568   6.932   5.453  1.1370  0.6523  0.2975
   13DOPC   C27 1713   4.554   6.970   5.657  0.7776 -0.4145 -0.3529
   13DOPC   H7R 1714   4.624   7.056   5.652 -0.1488  0.3293 -1.0107
   13DOPC   H7S 1715   4.558   6.922   5.757 -0.1600 -1.8933 -0.9829
   13DOPC   C28 1716   4.410   7.035   5.638 -0.1388  0.4001 -0.3022
   13DOPC   H8R 1717   4.415   7.067   5.532 -0.8475  0.2393 -0.3940
   13DOPC   H8S 1718   4.400   7.120   5.708  1.3148  0.6985 -0.4279
   13DOPC   C29 1719   4.303   6.921   5.648 -0.7617 -0.7251 -0.0571
   13DOPC   H9R 1720   4.321   6.850   5.730 -0.0395  0.6533  1.0322
   13DOPC  C210 1721   4.215   6.885   5.551 -0.3519 -0.1777  0.8296
   13DOPC  H10R 1722   4.163   6.792   5.575  1.3171 -0.8270  2.1242
   13DOPC  C211 1723   4.183   6.953   5.420  0.2300 -0.0543  0.3109
   13DOPC  H11R 1724   4.215   7.059   5.410 -0.8198  0.3931  1.3994
   13DOPC  H11S 1725   4.073   6.950   5.411  0.1773  0.8552  0.5746
   13DOPC  C212 1726   4.232   6.861   5.303  0.3323 -0.3039 -0.0488
   13DOPC  H12R 1727   4.152   6.784   5.303 -0.4841  0.4351  2.6145
   13DOPC  H12S 1728   4.332   6.821   5.329  0.0067 -1.1985 -0.1402
   13DOPC  C213 1729   4.242   6.936   5.167  0.3836 -0.0110  0.1970
   13DOPC  H13R 1730   4.311   7.023   5.167 -1.1195  1.2513  1.8170
   13DOPC  H13S 1731   4.151   6.993   5.137  0.5254 -0.6610 -1.5711
   13DOPC  C214 1732   4.269   6.854   5.044  0.5031  0.0616 -0.2102
   13DOPC  H14R 1733   4.195   6.772   5.047 -0.2223  0.6451 -1.3845
   13DOPC  H14S 1734   4.370   6.811   5.059  0.6252  0.4239  0.0463
   13DOPC  C215 1735   4.263   6.927   4.913 -0.1672 -0.3500  0.2556
   13DOPC  H15R 1736   4.357   6.983   4.897  0.7872 -1.4540  1.7388
   13DOPC  H15S 1737   4.181   7.001   4.900 -1.0881 -1.3723  0.1028
   13DOPC  C216 1738   4.252   6.820   4.801  0.5375 -0.8651  0.0287
   13DOPC  H16R 1739   4.161   6.757   4.815  1.2356 -1.9991 -0.3471
   13DOPC  H16S 1740   4.334   6.745   4.808  0.8674 -0.5891 -0.8103
   13DOPC  C217 1741   4.255   6.886   4.667 -0.2435 -0.2235  0.4928
   13DOPC  H17R 1742   4.348   6.947   4.671 -0.9205  0.8313  0.4502
   13DOPC  H17S 1743   4.170   6.956   4.652 -0.1657 -0.4675 -1.3717
   13DOPC  C218 1744   4.265   6.797   4.545  0.1912 -0.5137  0.0613
   13DOPC  H18R 1745   4.370   6.762   4.539  0.4356  0.3638 -1.3859
   13DOPC  H18S 1746   4.233   6.843   4.449 -1.8052 -1.2180  0.3508
   13DOPC  H18T 1747   4.198   6.710   4.557  2.1248 -1.9561  0.8626
   13DOPC   C33 1748   4.385   6.341   5.589 -0.6063  0.2147 -0.1371
   13DOPC   H3X 1749   4.405   6.232   5.580  0.1450  0.4305 -1.3380
   13DOPC   H3Y 1750   4.477   6.401   5.577  0.3222 -1.1509 -0.1318
   13DOPC   C34 1751   4.293   6.383   5.472  0.1856  0.1272 -0.3591
   13DOPC   H4X 1752   4.238   6.475   5.499 -0.9427 -0.7826  0.5632
   13DOPC   H4Y 1753   4.220   6.299   5.467  1.4755 -1.1410  1.0529
   13DOPC   C35 1754   4.364   6.388   5.336 -0.5479 -0.7812 -0.2667
   13DOPC   H5X 1755   4.400   6.283   5.333  0.2162 -0.5472  0.4483
   13DOPC   H5Y 1756   4.451   6.454   5.352 -0.8318 -0.7818  1.4409
   13DOPC   C36 1757   4.283   6.426   5.212 -0.4850 -0.1153  0.8106
   13DOPC   H6X 1758   4.216   6.339   5.198 -0.4882  0.1147 -0.6837
   13DOPC   H6Y 1759   4.216   6.513   5.231 -0.4366  0.0958  0.0525
   13DOPC   C37 1760   4.373   6.461   5.085 -0.1805 -0.1961  0.0733
   13DOPC   H7X 1761   4.306   6.506   5.009  0.3551  0.7517  0.1434
   13DOPC   H7Y 1762   4.453   6.534   5.108  0.7543 -1.4780  1.0455
   13DOPC   C38 1763   4.441   6.332   5.021  0.1868 -0.7766  0.3059
   13DOPC   H8X 1764   4.361   6.273   4.970 -1.5145  1.6823 -0.0694
   13DOPC   H8Y 1765   4.492   6.261   5.089  0.3876  0.0847  1.0629
   13DOPC   C39 1766   4.539   6.397   4.921 -0.1770  0.0045 -0.4595
   13DOPC   H9X 1767   4.622   6.456   4.961 -0.2961 -1.1696  1.6456
   13DOPC  C310 1768   4.569   6.367   4.791 -0.1827 -0.2032  0.1201
   13DOPC  H10X 1769   4.655   6.417   4.744 -0.1626  1.4505  1.7686
   13DOPC  C311 1770   4.502   6.280   4.695 -0.7114  0.0420 -0.2258
   13DOPC  H11X 1771   4.394   6.290   4.717 -0.4651  0.1637  0.9757
   13DOPC  H11Y 1772   4.524   6.175   4.723  1.6819  0.2657 -1.0248
   13DOPC  C312 1773   4.538   6.295   4.548 -0.2718  0.0008  0.8658
   13DOPC  H12X 1774   4.495   6.389   4.507  0.5355  0.8469  1.9374
   13DOPC  H12Y 1775   4.492   6.206   4.499  1.2520 -0.4576  0.2116
   13DOPC  C313 1776   4.688   6.265   4.513  0.0748  0.2255 -0.1225
   13DOPC  H13X 1777   4.743   6.361   4.520 -1.0734  1.1252 -2.2005
   13DOPC  H13Y 1778   4.725   6.203   4.596 -1.8895 -0.8574 -0.0011
   13DOPC  C314 1779   4.722   6.204   4.377  1.0137 -0.3941  0.8675
   13DOPC  H14X 1780   4.832   6.196   4.360  1.1185 -1.4157  1.8876
   13DOPC  H14Y 1781   4.679   6.101   4.378 -0.2325  0.1064  1.9767
   13DOPC  C315 1782   4.670   6.288   4.258 -0.3172  0.9746  0.1081
   13DOPC  H15X 1783   4.757   6.348   4.226 -1.3855  1.7591 -1.4286
   13DOPC  H15Y 1784   4.580   6.341   4.296  0.0162  0.6642  1.3921
   13DOPC  C316 1785   4.618   6.196   4.144  0.5285  0.4655 -0.6456
   13DOPC  H16X 1786   4.704   6.140   4.102  0.7459 -0.0722  0.5058
   13DOPC  H16Y 1787   4.541   6.129   4.188 -1.4346  3.2428  0.4449
   13DOPC  C317 1788   4.545   6.279   4.039 -0.0822 -0.1849 -0.1498
   13DOPC  H17X 1789   4.515   6.209   3.959 -0.5978  0.5706 -0.6240
   13DOPC  H17Y 1790   4.454   6.316   4.091  1.3959  0.2538  2.2845
   13DOPC  C318 1791   4.613   6.401   3.979  0.2043 -0.2627 -0.2511
   13DOPC  H18X 1792   4.542   6.447   3.908 -1.9663 -1.1141  1.2469
   13DOPC  H18Y 1793   4.629   6.479   4.057 -2.5322  0.4082 -0.2669
   13DOPC  H18Z 1794   4.709   6.375   3.929  1.3456 -1.1691  2.2171
   14DOPC     N 1795   7.510   9.299   6.609  0.2221 -0.1944 -0.5236
   14DOPC   C12 1796   7.423   9.416   6.556 -0.2615 -0.1933 -0.0545
   14DOPC  H12A 1797   7.393   9.467   6.647  2.9336  0.8914  0.5573
   14DOPC  H12B 1798   7.335   9.383   6.504 -0.1113  1.3611 -1.3895
   14DOPC   C13 1799   7.565   9.222   6.498 -0.1190  0.4044 -0.1835
   14DOPC  H13A 1800   7.645   9.273   6.446  0.3455  0.5084  0.6285
   14DOPC  H13B 1801   7.623   9.134   6.519  0.1966  0.7282  0.3268
   14DOPC  H13C 1802   7.494   9.193   6.421  1.4388  0.0063 -1.5303
   14DOPC   C14 1803   7.421   9.205   6.684  0.4611 -0.3364  0.3829
   14DOPC  H14A 1804   7.340   9.161   6.629  1.2155  0.7473 -1.6957
   14DOPC  H14B 1805   7.475   9.124   6.730 -0.7370 -2.5018 -1.8286
   14DOPC  H14C 1806   7.362   9.265   6.753 -0.0417 -0.0293 -0.2995
   14DOPC   C15 1807   7.630   9.347   6.695 -0.0008  0.1663 -0.5403
   14DOPC  H15A 1808   7.696   9.406   6.633 -0.0516  1.1373  0.2989
   14DOPC  H15B 1809   7.681   9.263   6.739 -1.5740  0.3402  1.7923
   14DOPC  H15C 1810   7.598   9.417   6.771  0.4707  0.1852 -0.3588
   14DOPC   C11 1811   7.488   9.520   6.460 -0.0114  0.1092 -0.0405
   14DOPC  H11A 1812   7.569   9.561   6.523 -0.0201 -0.4410  0.3383
   14DOPC  H11B 1813   7.543   9.471   6.377  0.4249 -0.6940  0.7067
   14DOPC     P 1814   7.410   9.713   6.297 -0.1368 -0.3849  0.3147
   14DOPC   O13 1815   7.555   9.749   6.300  0.0077  0.0076  0.7675
   14DOPC   O14 1816   7.308   9.818   6.312 -0.1716  0.6054 -0.3671
   14DOPC   O12 1817   7.392   9.611   6.409 -0.4440  0.3163 -0.3633
   14DOPC   O11 1818   7.383   9.632   6.163 -0.2130 -0.8652 -0.0053
   14DOPC    C1 1819   7.273   9.551   6.140  0.4664  0.4722  1.0535
   14DOPC    HA 1820   7.199   9.555   6.223 -0.6029 -0.3966  0.1767
   14DOPC    HB 1821   7.309   9.447   6.122 -1.7587  0.1405 -2.5007
   14DOPC    C2 1822   7.191   9.598   6.017 -0.0994  0.1328  0.5483
   14DOPC    HS 1823   7.089   9.557   6.035  0.0828  0.8810  4.1092
   14DOPC   O21 1824   7.249   9.552   5.894 -0.1245 -0.0525  1.2040
   14DOPC   C21 1825   7.152   9.528   5.804 -0.9985  0.1284 -0.3750
   14DOPC   O22 1826   7.033   9.524   5.820  0.1691 -0.1789 -0.8423
   14DOPC   C22 1827   7.209   9.509   5.662  0.0964 -0.1115 -1.0731
   14DOPC   H2R 1828   7.234   9.403   5.642  0.3390 -0.0218 -1.2436
   14DOPC   H2S 1829   7.299   9.573   5.649  0.1437 -0.2271 -1.2981
   14DOPC    C3 1830   7.178   9.755   6.011  0.0998  1.0375  0.1409
   14DOPC    HX 1831   7.271   9.810   5.987  0.2501  1.0111  0.6375
   14DOPC    HY 1832   7.147   9.792   6.112  1.5331  1.4087  0.4586
   14DOPC   O31 1833   7.086   9.806   5.907  0.1533 -0.0158 -0.0371
   14DOPC   C31 1834   6.961   9.807   5.947  0.5401  0.2745 -0.1971
   14DOPC   O32 1835   6.913   9.785   6.055  0.0854  0.0372 -0.3426
   14DOPC   C32 1836   6.884   9.817   5.816  0.8609 -0.7835  0.0185
   14DOPC   H2X 1837   6.940   9.881   5.744  0.2280 -0.3120 -0.0698
   14DOPC   H2Y 1838   6.881   9.713   5.776 -1.0720 -1.1750  1.0600
   14DOPC   C23 1839   7.094   9.557   5.567 -0.0387 -0.1445 -0.3166
   14DOPC   H3R 1840   6.993   9.515   5.586  0.7127 -1.4896  0.8645
   14DOPC   H3S 1841   7.119   9.498   5.476 -1.1704 -1.7472  0.3590
   14DOPC   C24 1842   7.112   9.713   5.546 -0.2367  0.2324  0.7391
   14DOPC   H4R 1843   7.196   9.740   5.478 -0.7836 -0.0854 -0.0756
   14DOPC   H4S 1844   7.119   9.768   5.641  0.6298  0.8942  0.3052
   14DOPC   C25 1845   6.984   9.769   5.480  0.2337  0.3135 -0.0852
   14DOPC   H5R 1846   7.001   9.879   5.479  0.0902  0.4272  2.8117
   14DOPC   H5S 1847   6.891   9.756   5.539  0.3493  1.6885  0.4554
   14DOPC   C26 1848   6.964   9.716   5.334 -0.5973  0.5897 -0.3579
   14DOPC   H6R 1849   6.944   9.607   5.335  1.2959  0.2097  0.8328
   14DOPC   H6S 1850   7.061   9.735   5.283 -0.4580 -0.6483 -0.5869
   14DOPC   C27 1851   6.854   9.781   5.256 -0.1367 -0.2209 -0.0567
   14DOPC   H7R 1852   6.864   9.890   5.274  2.5843 -0.4142 -0.0999
   14DOPC   H7S 1853   6.757   9.742   5.295  1.2754 -4.4968 -0.3264
   14DOPC   C28 1854   6.866   9.772   5.108 -0.5739 -0.1333  0.8342
   14DOPC   H8R 1855   6.888   9.664   5.088 -0.8065 -0.4265  2.0538
   14DOPC   H8S 1856   6.956   9.831   5.081  0.9231 -1.4931  2.5111
   14DOPC   C29 1857   6.740   9.814   5.028  0.6789 -0.3086 -0.1841
   14DOPC   H9R 1858   6.649   9.840   5.084 -2.2894 -0.7574 -4.3356
   14DOPC  C210 1859   6.736   9.826   4.893  0.0291  0.4372 -0.4707
   14DOPC  H10R 1860   6.639   9.853   4.850 -0.9688 -0.3946  1.1329
   14DOPC  C211 1861   6.847   9.805   4.792 -0.1538 -0.6010  0.3038
   14DOPC  H11R 1862   6.834   9.707   4.741  0.4620  1.0006 -3.2385
   14DOPC  H11S 1863   6.948   9.810   4.838 -0.0190 -0.6103  0.0059
   14DOPC  C212 1864   6.846   9.913   4.683  0.2871 -0.0361 -0.1810
   14DOPC  H12R 1865   6.749   9.964   4.665 -1.5549 -2.9560  0.7949
   14DOPC  H12S 1866   6.908   9.997   4.719 -1.2481  0.2566  1.9969
   14DOPC  C213 1867   6.903   9.859   4.549 -0.8892 -0.4224  0.5832
   14DOPC  H13R 1868   6.871   9.753   4.550 -0.8461 -0.5018  3.6770
   14DOPC  H13S 1869   7.011   9.885   4.546 -1.2002  1.1733  1.7807
   14DOPC  C214 1870   6.851   9.929   4.421  0.0673  0.1945  0.0376
   14DOPC  H14R 1871   6.860  10.038   4.440 -1.1042  0.5127 -1.1052
   14DOPC  H14S 1872   6.747   9.898   4.399  0.1587 -0.5727  0.6594
   14DOPC  C215 1873   6.924   9.894   4.288 -0.5353 -0.1541 -0.4768
   14DOPC  H15R 1874   6.945   9.786   4.272 -1.1788 -0.0681 -2.1002
   14DOPC  H15S 1875   7.022   9.945   4.294 -1.4111  1.8260 -1.9278
   14DOPC  C216 1876   6.839   9.947   4.166  0.3208 -0.2236 -0.8178
   14DOPC  H16R 1877   6.817  10.056   4.172  1.5370  0.0127 -0.3717
   14DOPC  H16S 1878   6.744   9.889   4.163  0.6390 -0.9334  1.2946
   14DOPC  C217 1879   6.912   9.929   4.027 -0.5490 -0.1764  0.2953
   14DOPC  H17R 1880   6.932   9.820   4.031  1.7480  0.2026  0.8624
   14DOPC  H17S 1881   7.006   9.988   4.021  0.3549 -1.7372 -2.4629
   14DOPC  C218 1882   6.823   9.969   3.909 -0.0913 -0.2467  0.0069
   14DOPC  H18R 1883   6.872   9.965   3.810 -2.1073 -0.6804 -1.0156
   14DOPC  H18S 1884   6.780  10.071   3.926  2.4856  1.3951 -2.4890
   14DOPC  H18T 1885   6.739   9.897   3.906 -1.5632  1.3345  0.7100
   14DOPC   C33 1886   6.738   9.870   5.850 -0.4147  0.9494  0.4146
   14DOPC   H3X 1887   6.752   9.970   5.896  0.7607  0.1883  1.7989
   14DOPC   H3Y 1888   6.687   9.801   5.921 -3.6857  1.8781 -0.8546
   14DOPC   C34 1889   6.640   9.891   5.729 -0.1418  0.9784 -0.5392
   14DOPC   H4X 1890   6.700   9.955   5.660  3.3244 -1.3711  0.0181
   14DOPC   H4Y 1891   6.556   9.956   5.761 -0.4404  1.7665 -2.7584
   14DOPC   C35 1892   6.588   9.759   5.661 -0.8308  0.0322 -0.6293
   14DOPC   H5X 1893   6.540   9.697   5.740 -0.8079  1.6388  0.6996
   14DOPC   H5Y 1894   6.680   9.705   5.632 -2.3740 -1.8066 -2.4188
   14DOPC   C36 1895   6.484   9.779   5.554 -0.0701  0.0150  0.2956
   14DOPC   H6X 1896   6.512   9.852   5.476 -0.3868  0.9648  1.0532
   14DOPC   H6Y 1897   6.470   9.692   5.486  3.0659  1.5687 -2.6190
   14DOPC   C37 1898   6.349   9.829   5.607  0.1601  0.0061 -0.4546
   14DOPC   H7X 1899   6.329   9.788   5.708 -0.9889  1.2818 -0.1416
   14DOPC   H7Y 1900   6.377   9.933   5.634 -0.4597  0.3605 -1.1441
   14DOPC   C38 1901   6.224   9.819   5.521 -0.1310 -0.4557  0.7646
   14DOPC   H8X 1902   6.129   9.862   5.561  0.5213  1.8829 -0.0611
   14DOPC   H8Y 1903   6.206   9.711   5.503  0.4908 -0.0043 -3.3899
   14DOPC   C39 1904   6.264   9.891   5.387  0.2768  0.1046 -0.2542
   14DOPC   H9X 1905   6.252  10.000   5.391  1.7924  0.2647  0.5151
   14DOPC  C310 1906   6.293   9.837   5.270 -0.4429  0.6154 -0.2818
   14DOPC  H10X 1907   6.306   9.902   5.182 -0.2941  2.5434  1.0982
   14DOPC  C311 1908   6.290   9.691   5.241  0.4346  0.5717  0.2796
   14DOPC  H11X 1909   6.191   9.656   5.203  2.0640 -1.5605 -2.3748
   14DOPC  H11Y 1910   6.322   9.632   5.329  0.3212 -1.3880 -0.9328
   14DOPC  C312 1911   6.367   9.652   5.119 -0.1312  0.0310  0.6267
   14DOPC  H12X 1912   6.383   9.544   5.101  1.0630  0.5763 -2.0139
   14DOPC  H12Y 1913   6.469   9.694   5.130  0.9606 -2.7843  2.1826
   14DOPC  C313 1914   6.306   9.693   4.980 -0.1467 -1.0827 -0.5363
   14DOPC  H13X 1915   6.202   9.654   4.985 -0.3133 -0.4954  1.9137
   14DOPC  H13Y 1916   6.292   9.803   4.984 -0.2976 -1.1370  0.8605
   14DOPC  C314 1917   6.393   9.660   4.863  0.2084 -0.4003  0.0369
   14DOPC  H14X 1918   6.491   9.711   4.862 -0.9061  1.9511 -1.9907
   14DOPC  H14Y 1919   6.420   9.552   4.857 -1.0113 -0.7501  0.4877
   14DOPC  C315 1920   6.334   9.709   4.734 -0.1571  0.2432 -0.0444
   14DOPC  H15X 1921   6.297   9.813   4.745  1.7935  0.9236  0.4037
   14DOPC  H15Y 1922   6.248   9.641   4.713 -0.6740  0.0836  2.3389
   14DOPC  C316 1923   6.429   9.707   4.609 -0.1058 -0.0853 -0.3972
   14DOPC  H16X 1924   6.513   9.778   4.623 -0.6473  0.1501  1.9063
   14DOPC  H16Y 1925   6.479   9.608   4.615  2.4647  1.1966  0.7591
   14DOPC  C317 1926   6.349   9.722   4.479  0.3037 -0.4731 -0.2643
   14DOPC  H17X 1927   6.415   9.699   4.392 -0.0104 -2.8595  0.0670
   14DOPC  H17Y 1928   6.284   9.632   4.479 -0.6657  0.2175  0.6609
   14DOPC  C318 1929   6.268   9.858   4.476 -0.1106 -0.0913 -1.2592
   14DOPC  H18X 1930   6.185   9.864   4.549  1.0251  0.0615  0.0636
   14DOPC  H18Y 1931   6.333   9.946   4.496  2.6612 -1.9638 -1.3243
   14DOPC  H18Z 1932   6.228   9.867   4.373 -1.1905  1.5560 -0.7370
   15DOPC     N 1933   9.013   1.880   6.395  1.2304 -0.8297 -0.5694
   15DOPC   C12 1934   9.121   1.940   6.306  0.2492  0.3328 -0.7259
   15DOPC  H12A 1935   9.198   1.969   6.376 -1.7284  1.0224  1.2765
   15DOPC  H12B 1936   9.083   2.028   6.257  2.1661  0.7785 -1.4912
   15DOPC   C13 1937   8.992   1.965   6.517  0.1398  0.8114 -0.2134
   15DOPC  H13A 1938   8.915   1.923   6.580  0.0548  2.0702  0.5578
   15DOPC  H13B 1939   9.077   1.976   6.583 -0.4185  0.3937  0.5872
   15DOPC  H13C 1940   8.966   2.068   6.498 -0.5117  0.6572 -0.1748
   15DOPC   C14 1941   9.052   1.742   6.443 -0.9131 -0.2422 -0.2420
   15DOPC  H14A 1942   9.134   1.761   6.511  0.1821  0.1901 -1.6424
   15DOPC  H14B 1943   8.970   1.690   6.491 -0.1943 -1.0166  0.1789
   15DOPC  H14C 1944   9.097   1.686   6.363 -0.2501 -2.8768  1.8201
   15DOPC   C15 1945   8.886   1.876   6.310  0.1284 -0.3916  0.2285
   15DOPC  H15A 1946   8.911   1.824   6.219  1.9026  1.1074 -0.2053
   15DOPC  H15B 1947   8.865   1.977   6.280  0.9621 -0.4726 -0.6624
   15DOPC  H15C 1948   8.801   1.836   6.364  0.5963  1.0527  2.1387
   15DOPC   C11 1949   9.179   1.844   6.205  0.6188 -0.4913 -0.5061
   15DOPC  H11A 1950   9.223   1.912   6.129 -1.6102  0.1284 -1.3341
   15DOPC  H11B 1951   9.260   1.782   6.248  1.4747  1.0314  0.1853
   15DOPC     P 1952   9.129   1.642   6.048  0.2370 -0.3086 -0.2157
   15DOPC   O13 1953   9.015   1.578   5.981 -0.4816  0.7358  0.2263
   15DOPC   O14 1954   9.220   1.568   6.140 -0.2597  0.6138  0.4924
   15DOPC   O12 1955   9.079   1.767   6.131  0.3521 -0.0194 -0.8114
   15DOPC   O11 1956   9.219   1.728   5.941  0.6600 -0.1905 -0.3208
   15DOPC    C1 1957   9.189   1.738   5.805  0.1439 -0.5230  0.4218
   15DOPC    HA 1958   9.148   1.643   5.765  0.3429 -0.7068  0.6509
   15DOPC    HB 1959   9.286   1.755   5.752 -0.5199 -2.2960 -1.5233
   15DOPC    C2 1960   9.098   1.859   5.765 -0.6587 -0.3956  0.3901
   15DOPC    HS 1961   8.995   1.842   5.802  0.0644 -1.2556  2.0904
   15DOPC   O21 1962   9.112   1.881   5.619  0.1574  0.0509 -0.2437
   15DOPC   C21 1963   9.017   1.818   5.552  0.4389 -0.8025  0.0994
   15DOPC   O22 1964   8.919   1.762   5.599  0.7856 -0.0706  0.3674
   15DOPC   C22 1965   9.066   1.815   5.403 -0.4603 -0.1311 -0.6335
   15DOPC   H2R 1966   9.150   1.743   5.401 -0.2442  0.1215 -2.5925
   15DOPC   H2S 1967   9.115   1.911   5.374 -0.5150  0.7352  1.9068
   15DOPC    C3 1968   9.143   1.984   5.840 -0.1931 -0.5180 -0.1779
   15DOPC    HX 1969   9.254   1.988   5.830 -0.2785  0.7361 -0.8097
   15DOPC    HY 1970   9.114   1.990   5.947 -1.7755  2.8665 -0.6736
   15DOPC   O31 1971   9.096   2.110   5.783  0.1081 -0.4786 -0.1004
   15DOPC   C31 1972   8.970   2.127   5.784  0.1819 -0.5683  0.0471
   15DOPC   O32 1973   8.884   2.058   5.833 -0.1751  0.2896  0.5006
   15DOPC   C32 1974   8.938   2.258   5.714 -0.0484 -0.1730  0.0537
   15DOPC   H2X 1975   8.878   2.320   5.784  0.1591  1.1066 -0.8853
   15DOPC   H2Y 1976   9.030   2.317   5.694  0.8995 -2.2507 -2.3183
   15DOPC   C23 1977   8.956   1.779   5.304  0.3907  0.2551  0.1360
   15DOPC   H3R 1978   8.880   1.860   5.294 -0.1763 -0.4149 -1.4022
   15DOPC   H3S 1979   8.901   1.692   5.345  0.4971 -0.0198 -0.2985
   15DOPC   C24 1980   9.027   1.741   5.173 -0.3885  0.1894  0.0970
   15DOPC   H4R 1981   9.110   1.669   5.187 -0.3760 -0.4959 -2.8749
   15DOPC   H4S 1982   9.075   1.831   5.128 -1.0647  0.9020  0.7505
   15DOPC   C25 1983   8.944   1.670   5.064  0.0136 -0.1864 -0.1108
   15DOPC   H5R 1984   8.851   1.727   5.042 -1.4984 -2.4594  0.1268
   15DOPC   H5S 1985   8.922   1.575   5.116 -0.7404  0.1876  0.2593
   15DOPC   C26 1986   9.031   1.644   4.940 -0.5536  0.0852  0.3255
   15DOPC   H6R 1987   9.124   1.592   4.971  1.4099  0.9890 -3.4674
   15DOPC   H6S 1988   9.077   1.740   4.906 -0.2866  0.3701  1.4484
   15DOPC   C27 1989   8.955   1.581   4.820 -0.4732  0.0124  0.4922
   15DOPC   H7R 1990   8.938   1.477   4.856  1.2955 -0.3779  0.2863
   15DOPC   H7S 1991   9.017   1.574   4.728 -0.2113  0.4043  0.6388
   15DOPC   C28 1992   8.820   1.654   4.779  0.2009 -0.1987 -0.2398
   15DOPC   H8R 1993   8.842   1.757   4.743 -2.1706  0.8028  0.9212
   15DOPC   H8S 1994   8.745   1.664   4.861 -1.0287 -0.2585 -1.3246
   15DOPC   C29 1995   8.738   1.577   4.683  0.2213 -0.0319  0.7216
   15DOPC   H9R 1996   8.678   1.496   4.728  1.2648 -0.0422  2.1738
   15DOPC  C210 1997   8.719   1.592   4.546 -0.2951  0.1899 -0.5814
   15DOPC  H10R 1998   8.647   1.524   4.498  1.5221 -1.3110 -1.2507
   15DOPC  C211 1999   8.798   1.691   4.465  0.1855 -0.1926  0.6952
   15DOPC  H11R 2000   8.902   1.700   4.503  0.0475  2.6988  0.6393
   15DOPC  H11S 2001   8.755   1.791   4.487  0.7307 -0.3886  2.8350
   15DOPC  C212 2002   8.798   1.658   4.310 -0.2337 -0.7435 -0.6374
   15DOPC  H12R 2003   8.830   1.554   4.290  0.3113 -1.1503  1.9049
   15DOPC  H12S 2004   8.866   1.731   4.262 -0.7800 -1.1743 -2.1318
   15DOPC  C213 2005   8.663   1.690   4.254  0.1907 -0.5286  0.3667
   15DOPC  H13R 2006   8.605   1.757   4.321  0.3301 -2.1447  2.2047
   15DOPC  H13S 2007   8.609   1.592   4.257  0.8637 -0.9036  0.3856
   15DOPC  C214 2008   8.666   1.752   4.111 -0.1490 -0.4281 -0.8069
   15DOPC  H14R 2009   8.725   1.680   4.050  0.6090 -2.6413  2.3243
   15DOPC  H14S 2010   8.717   1.849   4.091 -2.3231  0.7703 -0.8411
   15DOPC  C215 2011   8.524   1.750   4.042 -0.1920  0.0009 -0.2569
   15DOPC  H15R 2012   8.453   1.823   4.086  1.4252  1.0526  0.7125
   15DOPC  H15S 2013   8.480   1.648   4.042  1.7508 -0.9209  2.2705
   15DOPC  C216 2014   8.540   1.801   3.893 -0.5240  0.1649 -0.4990
   15DOPC  H16R 2015   8.620   1.742   3.843 -1.1531 -1.4468  0.3367
   15DOPC  H16S 2016   8.582   1.903   3.906  1.9835 -0.9288  0.4007
   15DOPC  C217 2017   8.413   1.792   3.808 -0.5730 -0.1253  0.0610
   15DOPC  H17R 2018   8.415   1.876   3.734  0.1325  0.9604  1.2547
   15DOPC  H17S 2019   8.321   1.803   3.868 -1.8936 -0.3829 -1.8465
   15DOPC  C218 2020   8.401   1.666   3.721  0.1609  0.0486 -0.1248
   15DOPC  H18R 2021   8.409   1.572   3.779  0.7529  0.2439  0.1079
   15DOPC  H18S 2022   8.482   1.671   3.645 -0.0992 -0.8488 -0.4834
   15DOPC  H18T 2023   8.309   1.678   3.658  0.5196  1.0539 -0.4858
   15DOPC   C33 2024   8.861   2.242   5.575 -0.2602  0.4273 -0.5857
   15DOPC   H3X 2025   8.821   2.341   5.544  0.4716  1.0958  0.5363
   15DOPC   H3Y 2026   8.771   2.178   5.588  1.5965 -2.2273  0.1186
   15DOPC   C34 2027   8.949   2.211   5.457 -0.0027  0.8680  0.2283
   15DOPC   H4X 2028   8.988   2.107   5.468 -1.6803  0.2797  0.8634
   15DOPC   H4Y 2029   9.039   2.277   5.452 -0.1143  0.9355 -0.9964
   15DOPC   C35 2030   8.868   2.215   5.330 -0.3508  0.4869  0.1974
   15DOPC   H5X 2031   8.838   2.321   5.314  2.0752  1.5032  1.8139
   15DOPC   H5Y 2032   8.788   2.139   5.343  0.7648 -1.2863 -2.3354
   15DOPC   C36 2033   8.954   2.173   5.209 -0.0566 -1.0327 -0.3861
   15DOPC   H6X 2034   9.052   2.226   5.212  0.1997 -1.5193  1.4296
   15DOPC   H6Y 2035   8.987   2.067   5.222 -1.5575 -1.3935  0.7978
   15DOPC   C37 2036   8.878   2.191   5.079 -0.1694 -0.6583  0.1879
   15DOPC   H7X 2037   8.832   2.094   5.052 -1.0652 -0.7260  1.8037
   15DOPC   H7Y 2038   8.792   2.260   5.092 -0.7517 -1.3586  0.0776
   15DOPC   C38 2039   8.971   2.230   4.966 -0.4236  0.8004  0.0952
   15DOPC   H8X 2040   9.048   2.153   4.945  0.4411  1.4385  0.8933
   15DOPC   H8Y 2041   9.033   2.317   4.995 -1.9217  2.2034 -0.7817
   15DOPC   C39 2042   8.887   2.249   4.839  0.6765 -0.3135 -0.3235
   15DOPC   H9X 2043   8.816   2.333   4.842 -0.8051 -1.4325 -2.1880
   15DOPC  C310 2044   8.874   2.161   4.736  0.8854 -0.0153 -0.5383
   15DOPC  H10X 2045   8.805   2.181   4.652  0.1999 -0.0313  0.0084
   15DOPC  C311 2046   8.954   2.035   4.727  0.5284 -0.4064  0.0865
   15DOPC  H11X 2047   8.900   1.954   4.673  0.3120 -1.0714  1.2703
   15DOPC  H11Y 2048   8.979   1.997   4.828  1.1476 -1.2308 -0.3694
   15DOPC  C312 2049   9.088   2.064   4.659  0.3129  0.5895 -0.3435
   15DOPC  H12X 2050   9.133   2.151   4.712  1.5919 -1.0417  1.3896
   15DOPC  H12Y 2051   9.071   2.084   4.551 -0.2905  0.7532 -0.2220
   15DOPC  C313 2052   9.183   1.941   4.676 -0.1102 -0.6569 -0.1910
   15DOPC  H13X 2053   9.288   1.976   4.663 -0.1415  0.3391  1.7493
   15DOPC  H13Y 2054   9.181   1.918   4.785  0.2856  3.4751  0.8754
   15DOPC  C314 2055   9.161   1.825   4.575  0.2647  0.0879 -0.0684
   15DOPC  H14X 2056   9.070   1.771   4.611 -0.7782  1.6682 -0.2175
   15DOPC  H14Y 2057   9.138   1.851   4.469  0.7630 -2.4211 -0.8420
   15DOPC  C315 2058   9.269   1.720   4.571 -1.0642  0.4060 -0.0407
   15DOPC  H15X 2059   9.306   1.680   4.668 -0.9068 -2.9616 -1.3601
   15DOPC  H15Y 2060   9.362   1.769   4.534  1.2476 -2.0280  2.1197
   15DOPC  C316 2061   9.259   1.601   4.487 -0.9653  0.4440  0.7750
   15DOPC  H16X 2062   9.189   1.530   4.535 -0.7651  1.3711  2.4877
   15DOPC  H16Y 2063   9.211   1.641   4.395  1.2298 -2.2897 -1.7356
   15DOPC  C317 2064   9.382   1.521   4.458 -0.6342 -0.3561  0.0633
   15DOPC  H17X 2065   9.367   1.474   4.358  0.0512  0.9451 -0.6821
   15DOPC  H17Y 2066   9.466   1.594   4.446 -2.8260  2.3263 -0.0694
   15DOPC  C318 2067   9.407   1.414   4.561 -0.1510  0.4938 -0.1992
   15DOPC  H18X 2068   9.402   1.464   4.660  0.4925 -0.8324  0.5246
   15DOPC  H18Y 2069   9.325   1.339   4.563  1.6917 -1.6019  1.1484
   15DOPC  H18Z 2070   9.507   1.366   4.559 -0.4672 -0.2901  1.3450
   16DOPC     N 2071   7.666  10.052   6.688  0.4736 -0.2877  0.5965
   16DOPC   C12 2072   7.661  10.010   6.541 -0.6381 -0.1581  0.2770
   16DOPC  H12A 2073   7.661   9.902   6.539  2.9069 -0.2834  1.2768
   16DOPC  H12B 2074   7.754  10.037   6.493 -1.6107  1.7260 -0.6430
   16DOPC   C13 2075   7.787   9.988   6.744 -0.4753 -0.4748 -0.1934
   16DOPC  H13A 2076   7.800   9.994   6.851 -0.6628  0.0052 -0.1966
   16DOPC  H13B 2077   7.781   9.881   6.730 -0.5836 -0.2304 -2.1870
   16DOPC  H13C 2078   7.879  10.023   6.700 -1.1853  0.5046 -0.9176
   16DOPC   C14 2079   7.539  10.019   6.759  0.2864  0.1063 -0.0207
   16DOPC  H14A 2080   7.537   9.917   6.796  1.3669  0.3054  0.6228
   16DOPC  H14B 2081   7.529  10.071   6.853  0.9676  1.5274 -0.6997
   16DOPC  H14C 2082   7.447  10.046   6.709 -0.5521  0.5308  1.6727
   16DOPC   C15 2083   7.684  10.198   6.694  0.1843 -0.4225 -1.2157
   16DOPC  H15A 2084   7.768  10.230   6.634  2.1924  1.3407  2.1933
   16DOPC  H15B 2085   7.707  10.244   6.789  2.8079 -0.7890 -1.5861
   16DOPC  H15C 2086   7.595  10.247   6.657  0.4308  1.4914  0.5594
   16DOPC   C11 2087   7.547  10.066   6.450 -0.1764  0.7989 -0.7783
   16DOPC  H11A 2088   7.562  10.021   6.350  1.2316 -0.1554 -0.1659
   16DOPC  H11B 2089   7.448  10.025   6.482  0.3873  0.2044  0.2461
   16DOPC     P 2090   7.635  10.282   6.344 -0.2304 -0.2653 -0.3349
   16DOPC   O13 2091   7.773  10.239   6.360 -0.6137 -0.0248 -0.0177
   16DOPC   O14 2092   7.623  10.431   6.359 -0.2180 -0.4965 -0.7317
   16DOPC   O12 2093   7.536  10.205   6.445 -0.2014  0.3617 -0.1722
   16DOPC   O11 2094   7.576  10.237   6.202  0.4708  0.1903 -0.0228
   16DOPC    C1 2095   7.438  10.243   6.174  0.4953  0.0779  0.3136
   16DOPC    HA 2096   7.397  10.332   6.227  0.9801 -0.1060  1.0063
   16DOPC    HB 2097   7.398  10.151   6.222  1.2967 -0.7193 -0.5033
   16DOPC    C2 2098   7.397  10.263   6.031  0.5545  0.0252  0.1857
   16DOPC    HS 2099   7.286  10.257   6.022  0.6556 -0.4853 -0.8802
   16DOPC   O21 2100   7.467  10.165   5.949  0.7439 -0.5590 -0.1341
   16DOPC   C21 2101   7.394  10.145   5.831  0.0444 -0.7163 -0.4907
   16DOPC   O22 2102   7.284  10.193   5.814 -0.6462  0.1343  0.6295
   16DOPC   C22 2103   7.461  10.052   5.739  0.2455  0.5966 -0.4215
   16DOPC   H2R 2104   7.503   9.969   5.799  1.0827  0.4642 -1.1719
   16DOPC   H2S 2105   7.549  10.111   5.704  0.6063 -0.3029 -1.0796
   16DOPC    C3 2106   7.449  10.405   5.987  0.7837  0.3571  0.0143
   16DOPC    HX 2107   7.559  10.400   5.985  0.7453 -0.5127 -0.2062
   16DOPC    HY 2108   7.416  10.467   6.073 -0.0226 -0.1220  0.0632
   16DOPC   O31 2109   7.394  10.449   5.860  0.4128 -0.5367 -0.2094
   16DOPC   C31 2110   7.279  10.519   5.860  0.5847 -0.2630  0.5261
   16DOPC   O32 2111   7.202  10.545   5.951 -0.0907 -0.1561 -0.1415
   16DOPC   C32 2112   7.245  10.557   5.712 -0.4577 -0.0806  0.0873
   16DOPC   H2X 2113   7.319  10.635   5.684  0.7418 -1.6811 -1.4374
   16DOPC   H2Y 2114   7.291  10.486   5.639  1.3550  0.1313  0.9631
   16DOPC   C23 2115   7.386   9.999   5.616 -0.2238 -0.1916  0.0682
   16DOPC   H3R 2116   7.365  10.089   5.555  0.3034 -0.2432 -0.1980
   16DOPC   H3S 2117   7.287   9.952   5.633 -0.7192  1.0299  0.6380
   16DOPC   C24 2118   7.459   9.900   5.519  0.2375 -0.6488 -0.4130
   16DOPC   H4R 2119   7.396   9.852   5.441  0.4933 -0.8378 -0.5051
   16DOPC   H4S 2120   7.476   9.810   5.582 -0.2957  1.9414  3.8111
   16DOPC   C25 2121   7.583   9.951   5.447  0.2554  0.3431 -0.2602
   16DOPC   H5R 2122   7.629   9.857   5.408 -1.4000 -0.2966 -0.7546
   16DOPC   H5S 2123   7.653  10.000   5.518 -1.6112  1.7522  0.6634
   16DOPC   C26 2124   7.549  10.049   5.337  0.4688  0.1377  0.7437
   16DOPC   H6R 2125   7.519  10.154   5.361 -0.0622  0.4844 -1.2707
   16DOPC   H6S 2126   7.459   9.999   5.295  1.1660 -0.9530  0.5257
   16DOPC   C27 2127   7.660  10.065   5.235  0.6869 -0.1515 -1.4147
   16DOPC   H7R 2128   7.711   9.968   5.218  0.5269 -1.4033  3.6055
   16DOPC   H7S 2129   7.736  10.120   5.295  1.8643 -0.6692 -2.4082
   16DOPC   C28 2130   7.616  10.131   5.107 -0.2264 -0.1246  0.4845
   16DOPC   H8R 2131   7.565  10.227   5.127  1.1535  0.6144  0.5577
   16DOPC   H8S 2132   7.552  10.060   5.051 -2.4604  2.2019 -0.0762
   16DOPC   C29 2133   7.739  10.149   5.018  0.3305 -0.6706  0.0458
   16DOPC   H9R 2134   7.834  10.146   5.075 -0.1958  0.8186  1.0610
   16DOPC  C210 2135   7.746  10.189   4.895  0.8820  0.1734 -0.1137
   16DOPC  H10R 2136   7.851  10.193   4.860  1.0425  0.0422  0.3416
   16DOPC  C211 2137   7.636  10.207   4.795 -0.3050 -0.1119 -0.3519
   16DOPC  H11R 2138   7.595  10.310   4.805  0.4566  0.2054 -0.3962
   16DOPC  H11S 2139   7.552  10.136   4.808 -0.9322  0.3671 -1.6278
   16DOPC  C212 2140   7.683  10.197   4.647  0.4087 -0.1255 -0.1493
   16DOPC  H12R 2141   7.592  10.193   4.583  0.6294  4.1377 -1.0084
   16DOPC  H12S 2142   7.744  10.105   4.635  0.9557  0.4322 -1.9700
   16DOPC  C213 2143   7.773  10.319   4.611  0.8054  0.3247  0.5305
   16DOPC  H13R 2144   7.859  10.329   4.680 -0.0467  1.2060  1.5096
   16DOPC  H13S 2145   7.719  10.415   4.626  0.8051  0.8276 -2.1580
   16DOPC  C214 2146   7.813  10.327   4.466  0.0977  0.0165  0.7294
   16DOPC  H14R 2147   7.720  10.319   4.406  0.4665  0.7135  0.0396
   16DOPC  H14S 2148   7.865  10.234   4.434  0.0204  0.6214 -1.2793
   16DOPC  C215 2149   7.883  10.457   4.427 -0.4110  0.1036 -0.4022
   16DOPC  H15R 2150   7.973  10.474   4.490  0.1690 -0.3303 -1.1074
   16DOPC  H15S 2151   7.812  10.542   4.442 -0.0853  0.9753 -3.2288
   16DOPC  C216 2152   7.918  10.460   4.273  0.4429 -0.2242  0.6678
   16DOPC  H16R 2153   7.987  10.543   4.248 -0.5734  0.6037  0.5788
   16DOPC  H16S 2154   7.816  10.469   4.231  0.3490  0.8234  1.1044
   16DOPC  C217 2155   7.964  10.323   4.227  0.1135  0.1384  0.4694
   16DOPC  H17R 2156   7.875  10.257   4.221  0.2072 -0.0767  1.2804
   16DOPC  H17S 2157   8.044  10.283   4.294 -0.0649 -0.6401  0.2339
   16DOPC  C218 2158   8.009  10.330   4.082  0.2517  0.4763 -0.2582
   16DOPC  H18R 2159   8.022  10.224   4.048  1.9930  0.7184 -0.4243
   16DOPC  H18S 2160   8.100  10.392   4.072 -0.3094  1.3594 -0.0160
   16DOPC  H18T 2161   7.929  10.371   4.016 -0.1506 -0.9284 -0.6972
   16DOPC   C33 2162   7.093  10.587   5.679 -0.3874  0.3719  0.1371
   16DOPC   H3X 2163   7.087  10.657   5.593 -0.5957 -0.4920 -0.5594
   16DOPC   H3Y 2164   7.053  10.636   5.771 -1.1672 -4.3632  2.6494
   16DOPC   C34 2165   7.007  10.465   5.645  0.3382  0.1672  0.1695
   16DOPC   H4X 2166   6.910  10.504   5.609 -0.2408  0.1916  1.7003
   16DOPC   H4Y 2167   6.987  10.416   5.742  0.7467  0.6489  0.5013
   16DOPC   C35 2168   7.066  10.351   5.570 -0.6497  0.0632  0.2662
   16DOPC   H5X 2169   7.007  10.257   5.579  2.0885 -1.9962 -1.8398
   16DOPC   H5Y 2170   7.161  10.326   5.623  0.6366  1.0784 -1.4807
   16DOPC   C36 2171   7.104  10.395   5.429  0.3664 -0.5978 -0.0095
   16DOPC   H6X 2172   7.015  10.433   5.376  0.8788 -0.1113 -0.5283
   16DOPC   H6Y 2173   7.184  10.472   5.442  1.2915 -1.4817 -0.3219
   16DOPC   C37 2174   7.172  10.286   5.349 -0.1900 -0.5323  0.4323
   16DOPC   H7X 2175   7.205  10.336   5.256  1.9130  0.4999  1.6565
   16DOPC   H7Y 2176   7.263  10.251   5.403 -1.3769 -3.0272  0.9231
   16DOPC   C38 2177   7.086  10.163   5.328  0.3470 -0.0214  0.5002
   16DOPC   H8X 2178   6.995  10.178   5.267  1.8390 -2.6145 -2.7234
   16DOPC   H8Y 2179   7.045  10.137   5.428 -0.6947 -2.4702 -0.4661
   16DOPC   C39 2180   7.176  10.045   5.276  0.3659 -0.2868  0.0580
   16DOPC   H9X 2181   7.243  10.002   5.352  0.9314 -2.4478 -1.5465
   16DOPC  C310 2182   7.191   9.999   5.147 -0.4669  0.3779  0.1770
   16DOPC  H10X 2183   7.276   9.932   5.130 -1.9370 -1.6318  0.3470
   16DOPC  C311 2184   7.131  10.057   5.021  0.3507  0.3657 -0.2955
   16DOPC  H11X 2185   7.076  10.151   5.043 -0.7260 -0.7740  2.2656
   16DOPC  H11Y 2186   7.058   9.984   4.979  0.2586  0.5634 -0.4799
   16DOPC  C312 2187   7.244  10.082   4.917  0.2850  0.0336  0.0041
   16DOPC  H12X 2188   7.285   9.987   4.878  0.9087  0.5342 -0.5728
   16DOPC  H12Y 2189   7.321  10.148   4.961 -0.1316  0.2608  0.4055
   16DOPC  C313 2190   7.183  10.152   4.791  0.0908  0.2330  0.0481
   16DOPC  H13X 2191   7.124  10.074   4.737 -0.0895  0.5743 -0.2586
   16DOPC  H13Y 2192   7.102  10.222   4.821 -1.0565 -0.6808 -0.8162
   16DOPC  C314 2193   7.287  10.224   4.709  0.3976 -0.5657  0.9177
   16DOPC  H14X 2194   7.343  10.296   4.773  0.7910  0.2659 -0.3267
   16DOPC  H14Y 2195   7.360  10.152   4.666  0.3475 -0.9738  1.5056
   16DOPC  C315 2196   7.223  10.318   4.607 -0.2692  0.3797  0.0104
   16DOPC  H15X 2197   7.147  10.379   4.659 -0.3689  0.9445 -0.7752
   16DOPC  H15Y 2198   7.156  10.255   4.544  1.1286 -1.3064  0.1338
   16DOPC  C316 2199   7.321  10.387   4.511  0.9580 -0.6033 -0.6580
   16DOPC  H16X 2200   7.369  10.467   4.571 -0.3959 -1.0685  1.1201
   16DOPC  H16Y 2201   7.396  10.309   4.482  1.2190 -0.9682  0.9268
   16DOPC  C317 2202   7.248  10.441   4.390  0.6602  0.1807 -0.1049
   16DOPC  H17X 2203   7.184  10.360   4.349 -0.9747  0.8534  1.0306
   16DOPC  H17Y 2204   7.173  10.515   4.425 -1.4607 -1.6478 -0.5588
   16DOPC  C318 2205   7.337  10.496   4.282 -0.0494 -0.1206 -0.3900
   16DOPC  H18X 2206   7.277  10.502   4.189 -1.4340 -0.3698  0.4432
   16DOPC  H18Y 2207   7.368  10.597   4.315 -0.3236  0.2451 -1.2290
   16DOPC  H18Z 2208   7.432  10.446   4.254 -0.7881 -0.5255 -2.3415
   17DOPC     N 2209   7.164   8.496   6.787  0.0153 -0.0370 -0.9835
   17DOPC   C12 2210   7.288   8.517   6.710 -0.5321 -0.2633  0.2223
   17DOPC  H12A 2211   7.322   8.618   6.727  1.2686 -0.4997 -1.5843
   17DOPC  H12B 2212   7.273   8.516   6.603  0.5029  0.8993  0.0499
   17DOPC   C13 2213   7.099   8.360   6.771 -1.3049  0.2976  0.2352
   17DOPC  H13A 2214   7.066   8.347   6.669  1.9980 -0.5779 -0.8717
   17DOPC  H13B 2215   7.169   8.279   6.784 -1.8834 -0.1473  0.5621
   17DOPC  H13C 2216   7.019   8.339   6.840 -1.0629 -2.7565 -0.3030
   17DOPC   C14 2217   7.054   8.586   6.736 -0.0730 -0.4248  0.8808
   17DOPC  H14A 2218   7.074   8.686   6.772 -2.5466  0.3418  0.3252
   17DOPC  H14B 2219   7.065   8.580   6.629 -2.1930  1.9115  0.4204
   17DOPC  H14C 2220   6.953   8.558   6.762 -1.1265  3.2086  1.2765
   17DOPC   C15 2221   7.179   8.525   6.932 -0.0472 -0.2722  0.1834
   17DOPC  H15A 2222   7.259   8.465   6.972 -0.3528 -1.3226 -0.7608
   17DOPC  H15B 2223   7.081   8.497   6.968 -0.2821 -0.3224 -0.4910
   17DOPC  H15C 2224   7.188   8.629   6.963 -1.4333 -0.1330  0.1775
   17DOPC   C11 2225   7.405   8.428   6.752  0.7485 -0.9195 -0.0183
   17DOPC  H11A 2226   7.492   8.461   6.690 -0.0813  1.7345  0.1330
   17DOPC  H11B 2227   7.415   8.447   6.861 -2.4159  0.6411  0.0921
   17DOPC     P 2228   7.396   8.202   6.614 -0.1903  0.1884 -0.0929
   17DOPC   O13 2229   7.290   8.095   6.612  0.2487  0.5414  0.1890
   17DOPC   O14 2230   7.541   8.168   6.597 -0.2977 -0.0574  0.5187
   17DOPC   O12 2231   7.377   8.289   6.746  0.0103  0.1344  0.2292
   17DOPC   O11 2232   7.366   8.307   6.503 -0.3653 -0.1935 -0.0286
   17DOPC    C1 2233   7.239   8.319   6.437 -0.3382 -0.2236 -0.6521
   17DOPC    HA 2234   7.226   8.424   6.404 -1.2161 -0.3018 -0.5760
   17DOPC    HB 2235   7.150   8.298   6.500 -0.2245 -1.2056 -0.7996
   17DOPC    C2 2236   7.241   8.252   6.295 -0.8471  0.7559 -0.4522
   17DOPC    HS 2237   7.208   8.148   6.318  0.1683  0.6342  0.5193
   17DOPC   O21 2238   7.372   8.250   6.235 -0.5473 -0.6879  0.7725
   17DOPC   C21 2239   7.404   8.145   6.162  0.5701 -1.0374 -0.2941
   17DOPC   O22 2240   7.325   8.056   6.143  0.2111  0.2576 -0.2185
   17DOPC   C22 2241   7.545   8.156   6.106  0.6391  0.1769  0.4109
   17DOPC   H2R 2242   7.616   8.136   6.189  1.0529  0.4290  0.1243
   17DOPC   H2S 2243   7.546   8.263   6.074 -3.2563  0.3515  0.3338
   17DOPC    C3 2244   7.147   8.317   6.194  0.7029 -0.6044  0.1517
   17DOPC    HX 2245   7.195   8.408   6.152 -1.9815 -0.0403 -2.0292
   17DOPC    HY 2246   7.055   8.340   6.252  0.9671 -0.5872  0.5700
   17DOPC   O31 2247   7.101   8.216   6.097 -0.0517 -0.7526 -0.3872
   17DOPC   C31 2248   7.114   8.267   5.974 -0.0031  0.7042 -0.2041
   17DOPC   O32 2249   7.137   8.383   5.953 -0.1169 -0.0556 -0.2289
   17DOPC   C32 2250   7.106   8.155   5.868  0.7553  0.2640 -0.2088
   17DOPC   H2X 2251   7.208   8.114   5.853  1.0231  0.7125  0.3477
   17DOPC   H2Y 2252   7.038   8.071   5.897  1.3938 -1.1261 -2.4879
   17DOPC   C23 2253   7.589   8.051   5.994 -0.0303 -0.1077  0.7453
   17DOPC   H3R 2254   7.554   7.945   6.006  0.8376 -0.8939 -2.6966
   17DOPC   H3S 2255   7.699   8.043   5.995  0.0565  0.9165  0.4005
   17DOPC   C24 2256   7.541   8.092   5.848 -0.3087 -0.2243  0.6726
   17DOPC   H4R 2257   7.577   8.194   5.824  1.2445 -0.6678  1.0063
   17DOPC   H4S 2258   7.432   8.109   5.839 -0.0270  2.0850  1.0237
   17DOPC   C25 2259   7.587   7.997   5.733 -0.4243 -0.4697  0.0970
   17DOPC   H5R 2260   7.675   7.940   5.769  0.3279 -1.2238 -2.7200
   17DOPC   H5S 2261   7.622   8.055   5.645 -1.7000 -2.4173 -1.8028
   17DOPC   C26 2262   7.484   7.893   5.690  0.8579  0.2931  0.0616
   17DOPC   H6R 2263   7.427   7.872   5.783 -0.7320  0.7519 -0.7601
   17DOPC   H6S 2264   7.530   7.796   5.662 -1.3879 -1.8805  3.2273
   17DOPC   C27 2265   7.381   7.938   5.577 -0.9997  0.0546  0.2228
   17DOPC   H7R 2266   7.438   7.979   5.491 -1.9785 -2.2494 -1.6627
   17DOPC   H7S 2267   7.322   8.022   5.618 -0.7625  1.1813 -1.5838
   17DOPC   C28 2268   7.297   7.813   5.533 -0.9636 -0.4587 -0.6999
   17DOPC   H8R 2269   7.253   7.771   5.627 -0.7790  0.6805 -0.0889
   17DOPC   H8S 2270   7.358   7.727   5.496  0.6165 -0.9039  2.5668
   17DOPC   C29 2271   7.181   7.864   5.447  0.6729  0.0862  0.4976
   17DOPC   H9R 2272   7.088   7.894   5.497 -0.5709  0.5051 -1.9445
   17DOPC  C210 2273   7.193   7.886   5.313  0.4755 -0.7831  0.7368
   17DOPC  H10R 2274   7.105   7.909   5.251  2.7035  0.7339 -2.1131
   17DOPC  C211 2275   7.310   7.853   5.227 -0.3931 -0.1840 -0.0064
   17DOPC  H11R 2276   7.404   7.853   5.287  0.3066  0.5012 -1.0649
   17DOPC  H11S 2277   7.313   7.937   5.155  0.3619  2.6315  3.0844
   17DOPC  C212 2278   7.303   7.715   5.148  0.0865 -1.4644 -0.0636
   17DOPC  H12R 2279   7.388   7.719   5.077 -1.6050  1.1393 -2.1902
   17DOPC  H12S 2280   7.217   7.720   5.077  1.0565  2.0628 -1.1872
   17DOPC  C213 2281   7.302   7.591   5.231  0.2767 -0.3540  0.9674
   17DOPC  H13R 2282   7.232   7.600   5.316 -1.5119  3.7006 -0.6947
   17DOPC  H13S 2283   7.407   7.571   5.263  0.8078 -0.6718 -0.8565
   17DOPC  C214 2284   7.261   7.462   5.151 -0.4088 -0.2853  0.0276
   17DOPC  H14R 2285   7.152   7.469   5.130 -0.5681  4.7762  1.2497
   17DOPC  H14S 2286   7.285   7.376   5.217  0.3829 -0.0634  0.0284
   17DOPC  C215 2287   7.338   7.449   5.017 -0.2486 -0.4623 -0.8533
   17DOPC  H15R 2288   7.446   7.452   5.043  0.7609 -0.4002 -4.5241
   17DOPC  H15S 2289   7.314   7.531   4.945 -1.9688 -0.1175  0.0629
   17DOPC  C216 2290   7.318   7.312   4.955 -0.0564  0.2443 -0.1991
   17DOPC  H16R 2291   7.213   7.286   4.928  0.1191 -0.4775 -0.1982
   17DOPC  H16S 2292   7.340   7.246   5.042  3.0411  0.3672 -0.7802
   17DOPC  C217 2293   7.418   7.302   4.841  0.4288  0.4530  0.2646
   17DOPC  H17R 2294   7.511   7.355   4.871  0.6920  0.2359 -0.1517
   17DOPC  H17S 2295   7.388   7.346   4.744 -0.7719  0.7117  0.7468
   17DOPC  C218 2296   7.447   7.148   4.810 -0.0618  0.2971 -0.2337
   17DOPC  H18R 2297   7.538   7.144   4.746  0.7412 -1.5952  0.9564
   17DOPC  H18S 2298   7.354   7.098   4.777 -1.5616  1.4147  2.0284
   17DOPC  H18T 2299   7.484   7.093   4.899 -0.8243  0.1425 -0.0026
   17DOPC   C33 2300   7.047   8.207   5.738  0.8797  0.0381 -0.1284
   17DOPC   H3X 2301   6.964   8.270   5.776  0.3097 -1.2841  0.8859
   17DOPC   H3Y 2302   7.000   8.137   5.666 -2.0498  2.3907 -0.6828
   17DOPC   C34 2303   7.144   8.282   5.646  0.4461 -0.2009 -0.0988
   17DOPC   H4X 2304   7.244   8.234   5.650  1.5389  2.0010  1.5686
   17DOPC   H4Y 2305   7.150   8.384   5.690  1.3804  0.1333 -0.9625
   17DOPC   C35 2306   7.100   8.280   5.503  0.0317  0.0467  0.4415
   17DOPC   H5X 2307   6.999   8.325   5.515  0.3666  0.9983 -0.2164
   17DOPC   H5Y 2308   7.093   8.175   5.467 -0.3547  0.5065 -0.8898
   17DOPC   C36 2309   7.197   8.356   5.417  0.0799  0.3192 -0.4993
   17DOPC   H6X 2310   7.219   8.452   5.469 -0.5553  0.1030  0.1823
   17DOPC   H6Y 2311   7.295   8.303   5.423  1.4371  2.8106  1.8910
   17DOPC   C37 2312   7.153   8.368   5.275  0.0006 -0.6852  0.0696
   17DOPC   H7X 2313   7.148   8.263   5.237  0.2939 -0.7314  0.1555
   17DOPC   H7Y 2314   7.054   8.416   5.264  1.1575  1.6737 -0.7691
   17DOPC   C38 2315   7.253   8.444   5.181 -0.5448 -0.8915 -0.5869
   17DOPC   H8X 2316   7.210   8.444   5.079 -0.6179 -0.1556 -0.5596
   17DOPC   H8Y 2317   7.354   8.398   5.174 -0.1962 -0.0245 -1.5223
   17DOPC   C39 2318   7.247   8.585   5.235 -0.1587  0.2567 -0.4640
   17DOPC   H9X 2319   7.279   8.598   5.339 -0.5212 -0.8968 -0.1933
   17DOPC  C310 2320   7.199   8.693   5.170 -0.1887 -0.7631  0.0323
   17DOPC  H10X 2321   7.203   8.783   5.233  1.6714 -3.1850  3.7077
   17DOPC  C311 2322   7.147   8.705   5.031 -0.2196 -0.3061  0.4420
   17DOPC  H11X 2323   7.176   8.623   4.961 -0.5306 -1.7661  1.9545
   17DOPC  H11Y 2324   7.187   8.799   4.987  0.1038  0.0680  1.4880
   17DOPC  C312 2325   6.992   8.710   5.014 -0.4037 -0.1856 -0.2442
   17DOPC  H12X 2326   6.948   8.784   5.084  0.6490  0.4298 -0.2092
   17DOPC  H12Y 2327   6.948   8.611   5.037 -1.5611 -0.1477 -1.9997
   17DOPC  C313 2328   6.958   8.744   4.871  0.1035 -0.2815  1.1897
   17DOPC  H13X 2329   6.993   8.844   4.838  1.6057 -0.9171  0.7666
   17DOPC  H13Y 2330   7.015   8.678   4.802  0.6511  0.7249  0.6392
   17DOPC  C314 2331   6.806   8.716   4.840  0.7398 -0.1650 -0.4291
   17DOPC  H14X 2332   6.771   8.626   4.896 -0.2699  1.3826  1.5831
   17DOPC  H14Y 2333   6.757   8.801   4.892 -0.8204 -1.0804 -0.3323
   17DOPC  C315 2334   6.764   8.719   4.693  0.0041 -0.2081 -0.1358
   17DOPC  H15X 2335   6.654   8.706   4.684 -0.1842  1.4869 -0.5589
   17DOPC  H15Y 2336   6.819   8.643   4.633 -1.1066 -0.6065 -0.6649
   17DOPC  C316 2337   6.813   8.853   4.620  0.0738 -0.7715  0.0357
   17DOPC  H16X 2338   6.791   8.940   4.687  0.6785  0.3815 -1.2238
   17DOPC  H16Y 2339   6.923   8.846   4.627  0.2406 -1.5290 -2.4362
   17DOPC  C317 2340   6.753   8.879   4.487 -0.5183  0.6672  0.8028
   17DOPC  H17X 2341   6.720   8.780   4.450 -1.2872  0.5559  1.7520
   17DOPC  H17Y 2342   6.654   8.929   4.482 -1.6775 -1.4186  1.7453
   17DOPC  C318 2343   6.847   8.952   4.394  0.6037  0.6985  0.0486
   17DOPC  H18X 2344   6.794   8.977   4.300  1.7349 -2.7857 -1.7089
   17DOPC  H18Y 2345   6.890   9.038   4.449  1.7880 -1.8439  3.4438
   17DOPC  H18Z 2346   6.934   8.892   4.359  2.9903  3.1571  1.4586
   18DOPC     N 2347   9.560   7.175   5.729  0.3931  0.4079  0.2858
   18DOPC   C12 2348   9.646   7.090   5.631  0.1791  0.5134  0.1934
   18DOPC  H12A 2349   9.645   7.141   5.536 -2.6191 -1.4612 -0.9556
   18DOPC  H12B 2350   9.601   6.993   5.625 -0.6780  0.8566  0.9129
   18DOPC   C13 2351   9.566   7.107   5.864  0.0508  0.1592 -0.9012
   18DOPC  H13A 2352   9.670   7.097   5.890 -0.6861  0.3295  2.5235
   18DOPC  H13B 2353   9.529   7.159   5.951  1.4109  0.4452 -0.4710
   18DOPC  H13C 2354   9.518   7.010   5.859 -0.1887  0.3069 -1.8320
   18DOPC   C14 2355   9.419   7.179   5.678  0.4821  0.7395 -0.3919
   18DOPC  H14A 2356   9.348   7.216   5.749 -0.2605 -2.2676  0.5857
   18DOPC  H14B 2357   9.422   7.231   5.583  1.7198 -1.4665 -1.6544
   18DOPC  H14C 2358   9.389   7.077   5.659 -1.8935  1.3825 -0.3976
   18DOPC   C15 2359   9.597   7.312   5.752  0.3914 -0.4780 -0.5757
   18DOPC  H15A 2360   9.558   7.345   5.847  0.2953 -4.0955  0.8303
   18DOPC  H15B 2361   9.581   7.384   5.673  1.7727 -0.7214 -1.1161
   18DOPC  H15C 2362   9.704   7.314   5.766  0.5103  0.2928 -1.5370
   18DOPC   C11 2363   9.793   7.070   5.651 -0.3356  0.0604  0.3608
   18DOPC  H11A 2364   9.811   7.017   5.747  0.0065 -1.2930 -0.4203
   18DOPC  H11B 2365   9.832   7.002   5.572 -1.1715 -1.0836  0.8961
   18DOPC     P 2366  10.018   7.201   5.609 -0.1974  0.0049 -0.4130
   18DOPC   O13 2367  10.090   7.088   5.680  0.2306 -0.5426 -0.1168
   18DOPC   O14 2368  10.065   7.341   5.634  0.0410  0.0551  0.5619
   18DOPC   O12 2369   9.865   7.193   5.653  0.8790 -0.3181  0.4044
   18DOPC   O11 2370  10.001   7.169   5.464  0.3384 -0.5978  0.6928
   18DOPC    C1 2371   9.936   7.242   5.360  0.4358  0.6480  0.1014
   18DOPC    HA 2372   9.918   7.350   5.383 -1.2121  1.0402 -2.5417
   18DOPC    HB 2373   9.836   7.199   5.340  0.0023  1.6432  0.0511
   18DOPC    C2 2374  10.025   7.234   5.241 -0.2695 -0.3141  1.0910
   18DOPC    HS 2375  10.069   7.133   5.224  0.2449  0.0807 -0.0211
   18DOPC   O21 2376  10.130   7.332   5.261 -0.1945  0.3255 -0.3426
   18DOPC   C21 2377  10.246   7.305   5.210  0.1327  0.7128 -0.3308
   18DOPC   O22 2378  10.272   7.200   5.151  0.0419 -0.6137 -0.3005
   18DOPC   C22 2379  10.327   7.441   5.220 -0.6464  0.1586  0.3348
   18DOPC   H2R 2380  10.407   7.411   5.291 -1.0346 -1.0894  0.2810
   18DOPC   H2S 2381  10.255   7.515   5.260 -1.9437  0.2344 -1.9586
   18DOPC    C3 2382   9.942   7.273   5.106 -0.7379  0.8016  0.1338
   18DOPC    HX 2383   9.894   7.367   5.139 -0.9627  0.0289  2.1924
   18DOPC    HY 2384   9.868   7.191   5.100  0.6276 -0.3581 -2.6012
   18DOPC   O31 2385  10.033   7.287   4.993 -0.0226 -0.2543  0.2408
   18DOPC   C31 2386  10.058   7.173   4.929  0.8232  0.2967 -0.4094
   18DOPC   O32 2387  10.022   7.063   4.970  0.1515  0.2107  0.4060
   18DOPC   C32 2388  10.138   7.194   4.799  0.2799 -0.0728  0.4270
   18DOPC   H2X 2389  10.214   7.274   4.808 -0.5398  0.7294  0.4061
   18DOPC   H2Y 2390  10.189   7.095   4.794 -0.6012 -0.4906 -0.9495
   18DOPC   C23 2391  10.388   7.488   5.080  0.5952 -0.3016 -0.4162
   18DOPC   H3R 2392  10.437   7.400   5.033  0.9049  0.2967 -1.2336
   18DOPC   H3S 2393  10.475   7.552   5.104 -0.8961  1.6721 -0.0182
   18DOPC   C24 2394  10.282   7.565   5.002 -0.3659  0.3525  0.1237
   18DOPC   H4R 2395  10.194   7.500   4.983 -0.0007  0.5782 -2.6615
   18DOPC   H4S 2396  10.330   7.588   4.905  3.1266  2.7642  2.2025
   18DOPC   C25 2397  10.235   7.699   5.054 -0.5034  0.3143  0.3893
   18DOPC   H5R 2398  10.306   7.778   5.022 -1.1933  0.7196 -0.1959
   18DOPC   H5S 2399  10.234   7.696   5.165  1.5086 -2.8651  0.4334
   18DOPC   C26 2400  10.097   7.727   4.989  0.7759 -0.2735 -0.2467
   18DOPC   H6R 2401  10.059   7.826   5.024 -1.3532 -0.5442 -1.5646
   18DOPC   H6S 2402  10.026   7.648   5.021  2.2127 -1.1939  0.7640
   18DOPC   C27 2403  10.111   7.765   4.841  0.0098 -0.2959  0.0477
   18DOPC   H7R 2404  10.144   7.678   4.780 -2.8232 -1.0975 -0.4921
   18DOPC   H7S 2405  10.187   7.840   4.811 -0.0153 -0.2634  0.0629
   18DOPC   C28 2406   9.966   7.810   4.791 -0.0026  0.1326  0.3659
   18DOPC   H8R 2407   9.899   7.740   4.844 -0.6732  2.3773  2.6960
   18DOPC   H8S 2408   9.951   7.802   4.682 -0.1715  2.4555  0.1736
   18DOPC   C29 2409   9.931   7.951   4.833  0.4447 -0.0211 -0.3472
   18DOPC   H9R 2410   9.891   7.959   4.935  0.9083  0.0681 -0.1730
   18DOPC  C210 2411   9.951   8.059   4.756  0.1271 -0.6412  0.2082
   18DOPC  H10R 2412   9.939   8.164   4.786  3.0201  0.4439 -1.9502
   18DOPC  C211 2413  10.013   8.057   4.616  0.0470 -0.1868 -0.4038
   18DOPC  H11R 2414  10.050   7.954   4.598 -1.0297 -0.8378  0.9050
   18DOPC  H11S 2415  10.111   8.109   4.610  0.2638 -0.4554  0.7346
   18DOPC  C212 2416   9.917   8.082   4.498  0.6249 -0.2491 -0.2349
   18DOPC  H12R 2417   9.833   8.009   4.510  0.6927 -0.4012 -0.6758
   18DOPC  H12S 2418   9.966   8.054   4.403 -0.5876 -1.9194 -0.4107
   18DOPC  C213 2419   9.851   8.221   4.494 -0.2408 -0.5373  0.3513
   18DOPC  H13R 2420   9.937   8.290   4.482 -2.4730  2.4216  0.3356
   18DOPC  H13S 2421   9.796   8.255   4.584 -1.2980 -2.3987  0.4641
   18DOPC  C214 2422   9.760   8.253   4.371  0.1865 -0.1147 -0.6305
   18DOPC  H14R 2423   9.674   8.183   4.383  1.0487 -1.2110 -0.6144
   18DOPC  H14S 2424   9.816   8.231   4.278 -0.1377 -1.1186 -0.6032
   18DOPC  C215 2425   9.686   8.396   4.352 -0.3795  0.6440 -0.5915
   18DOPC  H15R 2426   9.651   8.411   4.456 -0.3797 -0.6662 -0.3853
   18DOPC  H15S 2427   9.596   8.399   4.288 -1.8320  0.5888  1.3443
   18DOPC  C216 2428   9.787   8.513   4.340 -0.7586 -0.6516  0.2798
   18DOPC  H16R 2429   9.886   8.478   4.374 -1.1292 -2.3402 -0.3134
   18DOPC  H16S 2430   9.752   8.601   4.398 -0.8759  0.8926 -1.9783
   18DOPC  C217 2431   9.802   8.556   4.190 -0.7050  0.1904 -0.4874
   18DOPC  H17R 2432   9.868   8.645   4.182  1.4858 -1.2447  0.3758
   18DOPC  H17S 2433   9.701   8.572   4.148 -0.4563 -1.1371 -1.6688
   18DOPC  C218 2434   9.870   8.452   4.100  0.2840 -0.4385 -0.3633
   18DOPC  H18R 2435   9.904   8.499   4.005 -0.7678 -0.2436 -0.6654
   18DOPC  H18S 2436   9.804   8.366   4.077 -0.8261  0.3454 -0.1835
   18DOPC  H18T 2437   9.959   8.410   4.151  0.6963  0.5123 -0.2723
   18DOPC   C33 2438  10.049   7.202   4.674  0.3357  0.5884  0.1843
   18DOPC   H3X 2439   9.960   7.136   4.688 -1.2983  2.5348 -0.4555
   18DOPC   H3Y 2440  10.102   7.170   4.582  0.1695 -0.6807  0.5153
   18DOPC   C34 2441   9.993   7.342   4.650 -0.3827 -0.2504  0.3997
   18DOPC   H4X 2442  10.080   7.411   4.641 -1.2297  0.6496 -1.3660
   18DOPC   H4Y 2443   9.932   7.377   4.736  0.3811  0.6698  0.5904
   18DOPC   C35 2444   9.919   7.372   4.517 -0.1396  0.7651 -0.4084
   18DOPC   H5X 2445   9.830   7.308   4.501  0.4269 -0.1751  0.0884
   18DOPC   H5Y 2446   9.990   7.342   4.437  2.8401 -3.6320  3.3173
   18DOPC   C36 2447   9.871   7.519   4.499  0.5166 -0.7419  0.3809
   18DOPC   H6X 2448   9.785   7.542   4.566 -1.4531 -4.4444 -0.5690
   18DOPC   H6Y 2449   9.947   7.595   4.526 -1.1569  0.7513  1.0998
   18DOPC   C37 2450   9.831   7.556   4.355  0.2519  0.7818 -0.2534
   18DOPC   H7X 2451   9.916   7.531   4.289 -0.5019 -0.9568 -0.6243
   18DOPC   H7Y 2452   9.756   7.480   4.325  1.6326 -1.0474  0.7469
   18DOPC   C38 2453   9.783   7.698   4.334 -0.3843 -0.3330  0.1590
   18DOPC   H8X 2454   9.776   7.714   4.224  2.1699 -0.5562 -0.0915
   18DOPC   H8Y 2455   9.871   7.758   4.364 -0.3149 -0.3036 -0.1011
   18DOPC   C39 2456   9.655   7.742   4.409  0.2974  0.3807  0.4207
   18DOPC   H9X 2457   9.641   7.700   4.510  0.3187 -0.4286  0.0941
   18DOPC  C310 2458   9.554   7.810   4.355  0.3854 -0.4574 -0.2733
   18DOPC  H10X 2459   9.470   7.840   4.420 -1.2907 -2.6178 -1.3315
   18DOPC  C311 2460   9.543   7.875   4.221  0.1437  0.0789 -0.1679
   18DOPC  H11X 2461   9.526   7.809   4.133  1.1262  0.1752 -0.4525
   18DOPC  H11Y 2462   9.636   7.928   4.190 -0.2850  0.7299 -0.3564
   18DOPC  C312 2463   9.425   7.976   4.228 -0.1257  0.4192 -0.0301
   18DOPC  H12X 2464   9.455   8.057   4.299  1.9852 -0.0811 -0.2918
   18DOPC  H12Y 2465   9.327   7.932   4.254 -0.3820 -0.4833 -2.3241
   18DOPC  C313 2466   9.385   8.052   4.096  0.1042  0.0611 -0.3444
   18DOPC  H13X 2467   9.379   7.982   4.010  1.1193  1.1475 -1.3413
   18DOPC  H13Y 2468   9.284   8.095   4.116 -1.3075 -3.0436 -0.1567
   18DOPC  C314 2469   9.486   8.160   4.053 -0.3594 -0.1975 -0.0741
   18DOPC  H14X 2470   9.519   8.229   4.134 -3.0052  0.9694  0.1195
   18DOPC  H14Y 2471   9.578   8.101   4.031  0.7040  1.7592 -1.2401
   18DOPC  C315 2472   9.448   8.247   3.933  0.3163  0.7707  0.2246
   18DOPC  H15X 2473   9.349   8.294   3.952  0.4132  1.8192 -1.6383
   18DOPC  H15Y 2474   9.426   8.178   3.849 -0.7368 -0.2168  1.2836
   18DOPC  C316 2475   9.552   8.358   3.912  0.2416  0.5356 -0.2811
   18DOPC  H16X 2476   9.565   8.421   4.004 -1.2759 -2.0324  1.8400
   18DOPC  H16Y 2477   9.650   8.306   3.906  0.8370  0.6663  4.3960
   18DOPC  C317 2478   9.514   8.441   3.789 -0.2180 -0.7457 -0.4969
   18DOPC  H17X 2479   9.505   8.386   3.693  0.4466 -1.7004 -0.0295
   18DOPC  H17Y 2480   9.419   8.496   3.806  0.1194 -0.1982 -0.3546
   18DOPC  C318 2481   9.614   8.560   3.771 -0.2571 -0.4420  0.4229
   18DOPC  H18X 2482   9.574   8.630   3.695 -1.7829 -1.4911  0.2219
   18DOPC  H18Y 2483   9.620   8.622   3.863  0.6069 -1.1939  0.8885
   18DOPC  H18Z 2484   9.715   8.518   3.749  0.5396 -0.1054  3.1123
   19DOPC     N 2485   9.695   8.061   6.018  0.6145  0.0482 -0.1205
   19DOPC   C12 2486   9.763   7.961   5.926  0.2792 -0.3209  0.3632
   19DOPC  H12A 2487   9.814   7.875   5.965  1.6162 -0.1391 -0.8816
   19DOPC  H12B 2488   9.855   8.002   5.887 -0.1374  1.5304  1.1899
   19DOPC   C13 2489   9.795   8.107   6.110 -0.2468 -0.3606 -0.5064
   19DOPC  H13A 2490   9.748   8.156   6.194 -0.9110  0.5493 -1.3902
   19DOPC  H13B 2491   9.856   8.024   6.144  0.3068  0.0038 -0.6036
   19DOPC  H13C 2492   9.867   8.174   6.066 -0.9937  1.6721  1.1768
   19DOPC   C14 2493   9.589   8.000   6.103  0.0756  0.5103  0.3082
   19DOPC  H14A 2494   9.529   7.936   6.040 -0.9725  1.4722  0.2831
   19DOPC  H14B 2495   9.639   7.935   6.173  0.1946  0.7174  0.4154
   19DOPC  H14C 2496   9.526   8.073   6.153  0.7191  0.4843  1.1833
   19DOPC   C15 2497   9.631   8.176   5.936 -0.4470 -0.4224  0.5071
   19DOPC  H15A 2498   9.700   8.231   5.874  0.6103  0.7740  2.6408
   19DOPC  H15B 2499   9.579   8.248   5.998  0.6148 -0.9378  2.0710
   19DOPC  H15C 2500   9.560   8.123   5.875 -0.5740 -0.7125  0.9035
   19DOPC   C11 2501   9.676   7.912   5.805 -0.2798  0.0632  0.1727
   19DOPC  H11A 2502   9.658   8.005   5.746 -0.5390  0.8984  1.5207
   19DOPC  H11B 2503   9.735   7.844   5.739 -1.4105  1.2199 -2.1746
   19DOPC     P 2504   9.551   7.698   5.885 -0.3198  0.1632 -0.3553
   19DOPC   O13 2505   9.452   7.668   5.993  0.5901 -0.6645  0.8079
   19DOPC   O14 2506   9.690   7.657   5.929 -0.3142 -0.2383 -0.3538
   19DOPC   O12 2507   9.559   7.852   5.855  0.0274 -0.6059 -0.3113
   19DOPC   O11 2508   9.504   7.628   5.753  0.8127  0.6567 -0.0846
   19DOPC    C1 2509   9.394   7.691   5.687 -0.0822 -0.6054 -0.0090
   19DOPC    HA 2510   9.395   7.802   5.696 -2.8061 -0.6327  1.5015
   19DOPC    HB 2511   9.300   7.649   5.728  0.1793 -2.8386 -1.5018
   19DOPC    C2 2512   9.402   7.662   5.534 -0.3616 -0.2633 -0.3438
   19DOPC    HS 2513   9.386   7.552   5.527  1.1696 -0.6387  1.2714
   19DOPC   O21 2514   9.526   7.710   5.480 -0.1442 -0.1591 -0.0290
   19DOPC   C21 2515   9.591   7.622   5.415 -0.2601  0.1079  0.4588
   19DOPC   O22 2516   9.543   7.515   5.372 -0.1126 -0.5096  0.6743
   19DOPC   C22 2517   9.743   7.662   5.398  0.6000 -0.7961 -0.5874
   19DOPC   H2R 2518   9.805   7.589   5.454 -1.3386 -1.1096  1.2616
   19DOPC   H2S 2519   9.755   7.752   5.461  0.3742 -2.0199  1.2753
   19DOPC    C3 2520   9.287   7.736   5.456  0.5684 -0.4856  0.1291
   19DOPC    HX 2521   9.299   7.846   5.462 -2.6908 -0.0962  1.5281
   19DOPC    HY 2522   9.195   7.720   5.516  1.2045  1.4471  1.7375
   19DOPC   O31 2523   9.273   7.704   5.315 -0.1038  0.0253  0.8801
   19DOPC   C31 2524   9.205   7.592   5.291 -0.9083 -0.4377  0.5691
   19DOPC   O32 2525   9.191   7.501   5.369  0.0138 -0.3211 -0.3167
   19DOPC   C32 2526   9.153   7.600   5.151  0.1423 -0.5600  0.1603
   19DOPC   H2X 2527   9.095   7.506   5.136  1.2701 -1.1796 -0.4649
   19DOPC   H2Y 2528   9.101   7.697   5.135 -0.3167 -0.4629  1.9959
   19DOPC   C23 2529   9.791   7.672   5.253  0.3201 -0.6248 -0.4463
   19DOPC   H3R 2530   9.775   7.582   5.190 -0.8848 -1.6555  1.2258
   19DOPC   H3S 2531   9.902   7.681   5.261  0.1142  1.4110  0.6896
   19DOPC   C24 2532   9.747   7.800   5.176  0.1396  0.3711  0.0029
   19DOPC   H4R 2533   9.798   7.788   5.078 -1.0928 -1.8251 -0.4316
   19DOPC   H4S 2534   9.781   7.889   5.233  0.4959  0.2822 -0.0653
   19DOPC   C25 2535   9.595   7.820   5.152 -0.7117 -0.1760 -0.6671
   19DOPC   H5R 2536   9.540   7.844   5.245  2.0584  2.2356  0.5300
   19DOPC   H5S 2537   9.555   7.727   5.106 -0.9951 -1.1585  1.4198
   19DOPC   C26 2538   9.576   7.935   5.048 -0.2278  0.5568  1.0040
   19DOPC   H6R 2539   9.678   7.959   5.012 -0.7680 -1.0102 -1.8307
   19DOPC   H6S 2540   9.537   8.026   5.098  0.8700  1.1584  0.8018
   19DOPC   C27 2541   9.489   7.900   4.928  0.0753  0.0657 -0.0315
   19DOPC   H7R 2542   9.385   7.897   4.966  0.4717  1.8373  1.3193
   19DOPC   H7S 2543   9.525   7.796   4.908 -0.3063 -0.5048  2.0002
   19DOPC   C28 2544   9.505   7.993   4.815  0.6684  0.2751 -0.0652
   19DOPC   H8R 2545   9.452   7.941   4.733  0.9501  0.9077 -0.6628
   19DOPC   H8S 2546   9.615   7.990   4.798  0.8267  4.0327 -0.5199
   19DOPC   C29 2547   9.452   8.134   4.838  0.7736  0.1923 -0.2394
   19DOPC   H9R 2548   9.497   8.190   4.921 -2.0320 -1.8374  2.9328
   19DOPC  C210 2549   9.361   8.198   4.768 -0.4560  0.3677  0.5241
   19DOPC  H10R 2550   9.333   8.298   4.803 -1.8866  0.4838 -0.8112
   19DOPC  C211 2551   9.270   8.141   4.659  1.0824  0.4695 -1.2091
   19DOPC  H11R 2552   9.256   8.032   4.673  1.5827  0.1514 -2.8959
   19DOPC  H11S 2553   9.327   8.157   4.564  4.4513  2.8966  0.9782
   19DOPC  C212 2554   9.134   8.212   4.673  0.0817 -0.1433 -0.6449
   19DOPC  H12R 2555   9.097   8.211   4.777  2.2470  3.9546  0.3955
   19DOPC  H12S 2556   9.077   8.141   4.609  0.8614 -0.5941 -0.8517
   19DOPC  C213 2557   9.129   8.355   4.616 -0.1092  0.4738  0.1368
   19DOPC  H13R 2558   9.190   8.417   4.686 -0.5354  1.0181  0.0288
   19DOPC  H13S 2559   9.025   8.393   4.617 -0.8626 -1.2876 -2.2340
   19DOPC  C214 2560   9.176   8.366   4.469 -0.1163  0.0223 -0.2564
   19DOPC  H14R 2561   9.084   8.404   4.419  0.7820  0.5696 -1.5338
   19DOPC  H14S 2562   9.203   8.268   4.424 -2.0753 -0.4228 -0.5501
   19DOPC  C215 2563   9.290   8.466   4.446 -0.3406 -0.5583  0.0343
   19DOPC  H15R 2564   9.290   8.479   4.336  1.2465 -0.6663 -0.0075
   19DOPC  H15S 2565   9.390   8.430   4.480  0.8066  0.5552 -1.9497
   19DOPC  C216 2566   9.266   8.602   4.499  0.5184 -0.0838  0.5490
   19DOPC  H16R 2567   9.214   8.591   4.596  0.7066 -1.3925  0.5085
   19DOPC  H16S 2568   9.199   8.662   4.434 -2.0006 -1.4516  1.7429
   19DOPC  C217 2569   9.396   8.682   4.513 -0.2255  0.1144  0.3211
   19DOPC  H17R 2570   9.452   8.679   4.417 -0.5328  0.7411  0.1141
   19DOPC  H17S 2571   9.464   8.635   4.587 -0.5485 -0.4178  0.2829
   19DOPC  C218 2572   9.384   8.831   4.548 -0.5339 -0.2905  0.2453
   19DOPC  H18R 2573   9.338   8.844   4.649 -1.5911  1.9275 -0.4442
   19DOPC  H18S 2574   9.306   8.877   4.483 -0.7516 -1.5671 -0.4098
   19DOPC  H18T 2575   9.476   8.892   4.536 -1.2935  1.1532  1.2953
   19DOPC   C33 2576   9.268   7.593   5.048 -1.1976 -0.2329 -0.5475
   19DOPC   H3X 2577   9.353   7.539   5.094 -2.0808 -0.9830  0.2715
   19DOPC   H3Y 2578   9.318   7.688   5.019 -1.7627  0.2448  0.0102
   19DOPC   C34 2579   9.230   7.535   4.913 -0.3160 -0.6463 -0.2011
   19DOPC   H4X 2580   9.142   7.593   4.878  0.0769  0.7930  1.0712
   19DOPC   H4Y 2581   9.194   7.430   4.914  1.9656 -1.4906 -0.3860
   19DOPC   C35 2582   9.348   7.549   4.808 -0.0508 -0.3669  0.1073
   19DOPC   H5X 2583   9.437   7.498   4.852  0.7196  0.6114 -0.2920
   19DOPC   H5Y 2584   9.371   7.655   4.785 -0.4929 -0.0999  0.8674
   19DOPC   C36 2585   9.333   7.471   4.669 -0.2890  0.1217  0.3408
   19DOPC   H6X 2586   9.311   7.364   4.690  4.8766 -1.4287 -0.8987
   19DOPC   H6Y 2587   9.254   7.523   4.610  0.8916 -0.6442 -2.0396
   19DOPC   C37 2588   9.459   7.468   4.581  0.4989  0.6326 -0.1622
   19DOPC   H7X 2589   9.484   7.574   4.558  0.3463  1.2873  2.3723
   19DOPC   H7Y 2590   9.546   7.434   4.641  0.7945  0.7660 -0.5111
   19DOPC   C38 2591   9.458   7.391   4.452 -0.3865  1.2058  0.0200
   19DOPC   H8X 2592   9.548   7.418   4.392  0.1005 -1.5005 -0.6032
   19DOPC   H8Y 2593   9.372   7.427   4.392 -1.0362  0.5189  0.5078
   19DOPC   C39 2594   9.454   7.237   4.464  0.2502  0.2945  0.0669
   19DOPC   H9X 2595   9.366   7.196   4.516  0.3139  1.3667  1.0522
   19DOPC  C310 2596   9.539   7.146   4.411 -0.2466  1.0007 -0.1966
   19DOPC  H10X 2597   9.526   7.044   4.449 -0.0756  0.5766 -1.2378
   19DOPC  C311 2598   9.666   7.172   4.330 -0.5457 -0.5938  0.0810
   19DOPC  H11X 2599   9.757   7.144   4.387  1.2414  3.1521 -0.6450
   19DOPC  H11Y 2600   9.680   7.278   4.302 -0.1837 -0.4570  0.7615
   19DOPC  C312 2601   9.679   7.084   4.207  0.0081  1.0151  0.3233
   19DOPC  H12X 2602   9.677   6.978   4.241 -1.7486  0.6371 -0.8446
   19DOPC  H12Y 2603   9.782   7.088   4.166 -0.8316 -2.3325 -2.6028
   19DOPC  C313 2604   9.562   7.107   4.111  0.7364  0.1744 -0.1942
   19DOPC  H13X 2605   9.475   7.067   4.168  1.2440 -0.5768  0.0672
   19DOPC  H13Y 2606   9.549   7.216   4.094  0.2479  0.1781  0.1504
   19DOPC  C314 2607   9.576   7.032   3.980  0.4672 -0.2446  0.9396
   19DOPC  H14X 2608   9.661   7.078   3.926  0.3175 -1.0691 -0.0550
   19DOPC  H14Y 2609   9.593   6.922   3.985 -0.4845 -0.4766 -0.4685
   19DOPC  C315 2610   9.467   7.039   3.871 -0.1618  0.1802  0.7033
   19DOPC  H15X 2611   9.427   7.142   3.856  0.1391  0.1706 -0.2191
   19DOPC  H15Y 2612   9.382   6.982   3.914  0.4067 -0.6011  0.8175
   19DOPC  C316 2613   9.507   6.995   3.731  0.6315 -0.4077 -0.2701
   19DOPC  H16X 2614   9.600   7.049   3.704  0.6443  0.7994  1.9204
   19DOPC  H16Y 2615   9.546   6.891   3.737 -0.8045 -0.9349  0.6421
   19DOPC  C317 2616   9.390   7.015   3.632 -0.1181  1.0709  0.4323
   19DOPC  H17X 2617   9.346   7.117   3.634  2.6620  2.3714  0.1262
   19DOPC  H17Y 2618   9.434   6.997   3.532 -0.2969 -2.6193  0.8734
   19DOPC  C318 2619   9.275   6.911   3.639  0.1508  0.3508  0.2791
   19DOPC  H18X 2620   9.221   6.931   3.544 -1.1069 -0.5803  0.7792
   19DOPC  H18Y 2621   9.314   6.807   3.645  0.0979  0.3935  1.6143
   19DOPC  H18Z 2622   9.211   6.940   3.724  0.7402  2.7086 -0.0074
   20DOPC     N 2623   7.429   7.368   6.358 -0.0770 -0.4229  0.0990
   20DOPC   C12 2624   7.384   7.341   6.213 -0.1673 -0.3617  0.2497
   20DOPC  H12A 2625   7.447   7.259   6.180 -1.2829 -0.3883 -2.0107
   20DOPC  H12B 2626   7.414   7.433   6.165 -1.4530  2.2770  4.0113
   20DOPC   C13 2627   7.411   7.250   6.443  0.4541  0.0893  0.6722
   20DOPC  H13A 2628   7.312   7.211   6.423  0.2332  1.3098 -0.7699
   20DOPC  H13B 2629   7.479   7.167   6.425  0.8210  0.5527 -0.1675
   20DOPC  H13C 2630   7.410   7.270   6.549 -1.4448 -0.2678  0.7593
   20DOPC   C14 2631   7.356   7.481   6.424  0.0151 -0.4316 -0.0633
   20DOPC  H14A 2632   7.394   7.495   6.524  0.0152 -0.8903  0.0010
   20DOPC  H14B 2633   7.355   7.576   6.372 -1.9244 -1.1249 -1.4091
   20DOPC  H14C 2634   7.252   7.452   6.435 -0.4108  1.0821  0.1905
   20DOPC   C15 2635   7.569   7.416   6.380 -0.2633 -0.0946  0.5211
   20DOPC  H15A 2636   7.643   7.340   6.362 -0.5119 -0.0646 -0.7376
   20DOPC  H15B 2637   7.590   7.446   6.482 -0.5624 -0.2346  0.6233
   20DOPC  H15C 2638   7.594   7.494   6.309 -1.9304 -0.8300 -0.9421
   20DOPC   C11 2639   7.230   7.314   6.193 -0.1976  0.2686  0.2461
   20DOPC  H11A 2640   7.175   7.401   6.234  0.4512  0.8636 -0.1228
   20DOPC  H11B 2641   7.214   7.312   6.083  0.3259  0.7402  0.1547
   20DOPC     P 2642   7.203   7.057   6.182  0.1504  0.3064 -0.0226
   20DOPC   O13 2643   7.109   6.961   6.241 -0.1841  0.4744 -0.1133
   20DOPC   O14 2644   7.353   7.022   6.186 -0.1186  0.1405 -0.0314
   20DOPC   O12 2645   7.185   7.193   6.250 -0.2019 -0.1756 -0.0521
   20DOPC   O11 2646   7.163   7.094   6.035  0.5786  0.0925  0.4966
   20DOPC    C1 2647   7.228   7.036   5.919 -0.2176  0.2505 -0.0675
   20DOPC    HA 2648   7.179   6.941   5.891  2.1631 -0.7597 -1.0936
   20DOPC    HB 2649   7.336   7.012   5.931 -0.1696 -0.4072 -1.5525
   20DOPC    C2 2650   7.216   7.131   5.794 -0.3575  0.4332 -0.0584
   20DOPC    HS 2651   7.251   7.074   5.706  1.4162  2.5542 -0.8035
   20DOPC   O21 2652   7.298   7.247   5.818  0.5882 -0.0404 -0.7730
   20DOPC   C21 2653   7.430   7.228   5.809  0.4687  0.4175  0.6789
   20DOPC   O22 2654   7.478   7.117   5.788  0.4629 -0.4073  0.0491
   20DOPC   C22 2655   7.500   7.366   5.809 -0.3775  0.5836  0.7680
   20DOPC   H2R 2656   7.565   7.366   5.899 -2.7385 -2.7348  2.7383
   20DOPC   H2S 2657   7.424   7.445   5.824 -0.8692  0.0716  1.0080
   20DOPC    C3 2658   7.077   7.175   5.760 -0.1476 -0.5502 -0.1094
   20DOPC    HX 2659   7.038   7.240   5.842  1.1324 -0.1384  0.1923
   20DOPC    HY 2660   7.010   7.087   5.751  0.7411 -1.2895  0.3729
   20DOPC   O31 2661   7.082   7.237   5.630 -0.4047 -0.3360  0.3404
   20DOPC   C31 2662   6.978   7.304   5.604 -0.4458 -0.1779  0.1798
   20DOPC   O32 2663   6.869   7.302   5.661  0.1130 -0.7440  0.3630
   20DOPC   C32 2664   7.007   7.396   5.482  0.0768  0.0171  0.3721
   20DOPC   H2X 2665   7.100   7.456   5.495 -0.9587  1.8234 -0.2048
   20DOPC   H2Y 2666   7.037   7.341   5.390 -0.1543  3.2826 -1.8322
   20DOPC   C23 2667   7.592   7.385   5.688  0.1469 -0.0134 -0.3037
   20DOPC   H3R 2668   7.647   7.293   5.658 -0.9315 -0.3902 -1.1639
   20DOPC   H3S 2669   7.665   7.462   5.720 -0.7651  0.2989  1.1608
   20DOPC   C24 2670   7.510   7.432   5.569  0.5718 -0.1838 -0.4258
   20DOPC   H4R 2671   7.541   7.534   5.538 -0.7715  0.2083 -0.5215
   20DOPC   H4S 2672   7.401   7.433   5.591  0.5852 -0.1193 -0.3609
   20DOPC   C25 2673   7.538   7.333   5.450 -0.0262 -0.0678  0.1990
   20DOPC   H5R 2674   7.644   7.358   5.427 -0.7489  2.5823 -0.5840
   20DOPC   H5S 2675   7.482   7.378   5.365  0.6412 -2.2134 -1.4553
   20DOPC   C26 2676   7.479   7.191   5.475  0.4555 -0.3044  0.2371
   20DOPC   H6R 2677   7.374   7.206   5.507  0.3072  0.5507 -0.5828
   20DOPC   H6S 2678   7.542   7.148   5.556  2.7975  2.7457  0.2057
   20DOPC   C27 2679   7.473   7.100   5.353 -0.4051  0.6639  0.1001
   20DOPC   H7R 2680   7.408   7.128   5.267  2.0215 -1.8666 -2.7696
   20DOPC   H7S 2681   7.444   6.999   5.390  3.1604 -0.0243  1.3371
   20DOPC   C28 2682   7.604   7.069   5.289 -0.2260 -0.6419 -0.0098
   20DOPC   H8R 2683   7.676   7.050   5.372 -0.6730  0.7964  0.7396
   20DOPC   H8S 2684   7.641   7.168   5.255 -1.2468  0.7601  2.6761
   20DOPC   C29 2685   7.604   6.970   5.172 -0.6233 -0.5400 -0.2835
   20DOPC   H9R 2686   7.549   7.004   5.084  1.0273  0.1971 -1.0722
   20DOPC  C210 2687   7.672   6.856   5.161  0.0417  0.8896 -0.2701
   20DOPC  H10R 2688   7.665   6.802   5.066 -1.4804  1.0002 -0.2437
   20DOPC  C211 2689   7.768   6.802   5.271  0.1369 -0.1982  0.1630
   20DOPC  H11R 2690   7.740   6.696   5.286 -0.1815 -0.1617 -0.1468
   20DOPC  H11S 2691   7.755   6.846   5.372 -3.5192  0.8087 -0.6072
   20DOPC  C212 2692   7.911   6.803   5.227 -0.4882  0.5566  0.0254
   20DOPC  H12R 2693   7.984   6.799   5.311 -0.5837  1.2956  0.1472
   20DOPC  H12S 2694   7.931   6.899   5.177 -1.1626  1.1025  0.7659
   20DOPC  C213 2695   7.950   6.689   5.130  0.5305 -0.0978  0.3340
   20DOPC  H13R 2696   7.864   6.649   5.072  0.7574  1.4763 -1.1520
   20DOPC  H13S 2697   7.996   6.607   5.190  1.3394 -0.6623 -1.0147
   20DOPC  C214 2698   8.051   6.728   5.028 -0.0762  0.2522  0.4036
   20DOPC  H14R 2699   8.142   6.758   5.083 -0.2499 -0.6947  1.2537
   20DOPC  H14S 2700   8.015   6.816   4.971 -2.3346 -0.3434  0.8039
   20DOPC  C215 2701   8.070   6.616   4.925 -0.4990 -0.1124 -0.0813
   20DOPC  H15R 2702   7.975   6.585   4.878  0.5735 -2.1981 -1.0066
   20DOPC  H15S 2703   8.110   6.528   4.982  0.7768 -0.4653 -1.4631
   20DOPC  C216 2704   8.170   6.656   4.814 -0.2557  0.6741 -0.3916
   20DOPC  H16R 2705   8.265   6.679   4.865  0.3172 -2.2839  0.0460
   20DOPC  H16S 2706   8.138   6.747   4.759  0.0462 -0.4051 -2.4825
   20DOPC  C217 2707   8.192   6.551   4.698  0.2169 -0.0403 -0.3259
   20DOPC  H17R 2708   8.107   6.551   4.627  1.4651 -1.1189 -1.8963
   20DOPC  H17S 2709   8.215   6.446   4.727  0.5000 -0.4391 -1.9231
   20DOPC  C218 2710   8.310   6.590   4.617 -0.2857  0.2575 -0.8172
   20DOPC  H18R 2711   8.401   6.582   4.680 -0.4816  1.3672 -0.3763
   20DOPC  H18S 2712   8.303   6.691   4.572  1.2903  1.2187  0.9439
   20DOPC  H18T 2713   8.323   6.510   4.541 -3.8911  0.5839 -1.9570
   20DOPC   C33 2714   6.886   7.481   5.440 -0.2134 -0.3546  0.1095
   20DOPC   H3X 2715   6.847   7.540   5.526 -2.0142  0.5370 -1.2599
   20DOPC   H3Y 2716   6.812   7.404   5.410  0.5174 -1.4075  0.9212
   20DOPC   C34 2717   6.917   7.584   5.331 -0.1660  0.1049  0.6523
   20DOPC   H4X 2718   6.977   7.532   5.253  0.1762  0.9630  0.3378
   20DOPC   H4Y 2719   6.990   7.658   5.371 -0.2397  0.8492 -0.5363
   20DOPC   C35 2720   6.796   7.645   5.271  0.7038  0.6654  0.6024
   20DOPC   H5X 2721   6.737   7.700   5.347  1.2207  2.8968 -0.5297
   20DOPC   H5Y 2722   6.733   7.569   5.219 -2.1075  2.0333  1.7662
   20DOPC   C36 2723   6.840   7.751   5.165 -0.0256  0.2357  0.1379
   20DOPC   H6X 2724   6.756   7.817   5.133  0.2800  0.7907  0.4635
   20DOPC   H6Y 2725   6.926   7.811   5.203  0.5383 -0.3805 -0.1452
   20DOPC   C37 2726   6.880   7.682   5.028  0.4004 -0.3209 -0.3614
   20DOPC   H7X 2727   6.942   7.595   5.057  0.5634  0.9958  3.8692
   20DOPC   H7Y 2728   6.785   7.660   4.974  0.2928 -0.9210  0.0642
   20DOPC   C38 2729   6.963   7.776   4.936  0.0609  0.1161 -0.4294
   20DOPC   H8X 2730   6.979   7.706   4.851 -1.8190  0.5881 -1.2231
   20DOPC   H8Y 2731   7.065   7.799   4.974 -0.4539 -0.1370  1.1696
   20DOPC   C39 2732   6.891   7.891   4.878  0.5431 -0.0834 -0.1419
   20DOPC   H9X 2733   6.925   7.990   4.911 -1.4912  0.0640  1.7631
   20DOPC  C310 2734   6.815   7.885   4.764  0.3719  0.4725  0.4397
   20DOPC  H10X 2735   6.771   7.974   4.716 -0.1204 -0.2822 -0.5546
   20DOPC  C311 2736   6.760   7.757   4.703  0.2713 -0.2819  0.2639
   20DOPC  H11X 2737   6.682   7.706   4.764  0.6626 -2.5955 -1.0877
   20DOPC  H11Y 2738   6.837   7.678   4.697 -2.1048 -2.6331 -2.4796
   20DOPC  C312 2739   6.732   7.777   4.558 -0.3157 -0.0930 -0.4433
   20DOPC  H12X 2740   6.828   7.786   4.504  0.0633  0.7354  0.3341
   20DOPC  H12Y 2741   6.684   7.876   4.540 -0.1671  0.8357  3.3664
   20DOPC  C313 2742   6.638   7.679   4.480 -0.6118 -0.6042 -0.8965
   20DOPC  H13X 2743   6.552   7.647   4.543 -1.2154  2.3832 -0.0319
   20DOPC  H13Y 2744   6.600   7.726   4.387 -0.5421 -0.2569 -0.7537
   20DOPC  C314 2745   6.711   7.547   4.438 -0.0552  0.3948 -0.4514
   20DOPC  H14X 2746   6.807   7.592   4.403  0.3498  0.5966  0.8562
   20DOPC  H14Y 2747   6.728   7.485   4.529 -0.9491  1.6556  0.6187
   20DOPC  C315 2748   6.632   7.476   4.327 -0.2464 -0.3294  0.1520
   20DOPC  H15X 2749   6.598   7.554   4.255  2.1117 -0.5210 -1.2625
   20DOPC  H15Y 2750   6.547   7.422   4.374 -0.2686 -1.0275 -0.6781
   20DOPC  C316 2751   6.710   7.370   4.254  0.3287 -1.7164 -0.3085
   20DOPC  H16X 2752   6.792   7.406   4.189  0.0248 -1.6239 -0.6432
   20DOPC  H16Y 2753   6.753   7.314   4.340  2.9716  0.4492 -0.0775
   20DOPC  C317 2754   6.629   7.260   4.187  0.0147 -0.6392  0.1808
   20DOPC  H17X 2755   6.562   7.213   4.263 -0.9401  0.3678 -0.0065
   20DOPC  H17Y 2756   6.568   7.295   4.101 -0.3778 -4.2195 -1.1390
   20DOPC  C318 2757   6.721   7.152   4.132 -0.8125  0.3038 -0.1953
   20DOPC  H18X 2758   6.651   7.074   4.094 -1.8087  0.5494  1.0765
   20DOPC  H18Y 2759   6.776   7.195   4.046 -3.1539  1.0227 -1.4440
   20DOPC  H18Z 2760   6.787   7.099   4.204 -1.4249  1.1884  1.0337
   21DOPC     N 2761  10.809  12.219   6.400 -0.7790 -0.6353  0.5672
   21DOPC   C12 2762  10.680  12.192   6.321  0.2642  0.4672  0.5318
   21DOPC  H12A 2763  10.599  12.261   6.343 -2.7813 -2.4682 -0.5949
   21DOPC  H12B 2764  10.634  12.102   6.358  0.0656  0.0451 -0.6834
   21DOPC   C13 2765  10.889  12.094   6.395 -0.2097  0.3428 -0.0018
   21DOPC  H13A 2766  10.913  12.059   6.296  2.8115 -2.2758  1.4465
   21DOPC  H13B 2767  10.983  12.104   6.448  0.0681 -0.6107 -0.2938
   21DOPC  H13C 2768  10.825  12.020   6.441  0.4472  0.1463  0.6166
   21DOPC   C14 2769  10.769  12.242   6.542  0.0207 -0.0179 -0.4088
   21DOPC  H14A 2770  10.850  12.284   6.600  0.0741 -1.2253  0.4513
   21DOPC  H14B 2771  10.689  12.314   6.543 -1.3607 -1.4565  1.6659
   21DOPC  H14C 2772  10.749  12.156   6.605 -0.6623  1.3114  1.2612
   21DOPC   C15 2773  10.881  12.343   6.357  1.1689  0.1504 -0.0389
   21DOPC  H15A 2774  10.954  12.379   6.428  1.5538 -2.1774  0.8185
   21DOPC  H15B 2775  10.814  12.426   6.335  1.7705  0.2103 -1.8077
   21DOPC  H15C 2776  10.931  12.331   6.262  2.3362 -1.3165  0.7245
   21DOPC   C11 2777  10.702  12.183   6.168 -0.8851 -0.1598 -0.0191
   21DOPC  H11A 2778  10.611  12.150   6.114  0.1204 -1.0674 -1.2140
   21DOPC  H11B 2779  10.730  12.286   6.135  1.2211 -0.4027  0.8426
   21DOPC     P 2780  10.789  11.947   6.089  0.5009 -0.2632  0.1215
   21DOPC   O13 2781  10.743  11.883   6.213 -0.0413  0.2517  0.0943
   21DOPC   O14 2782  10.905  11.881   6.029  0.3165 -0.5549 -0.4523
   21DOPC   O12 2783  10.811  12.101   6.123 -0.1668  0.1370  0.3958
   21DOPC   O11 2784  10.670  11.940   5.978 -0.0608 -0.2793 -0.1947
   21DOPC    C1 2785  10.684  12.024   5.860 -0.1709  0.3338  0.7811
   21DOPC    HA 2786  10.783  12.026   5.811 -0.7190  0.4002 -0.3554
   21DOPC    HB 2787  10.646  12.126   5.882 -2.1604 -0.3060  0.5850
   21DOPC    C2 2788  10.606  11.968   5.744  0.2603  0.2833  0.2689
   21DOPC    HS 2789  10.652  11.870   5.724  0.0713  0.0106  1.1068
   21DOPC   O21 2790  10.620  12.049   5.628  0.2339 -0.5478 -0.0481
   21DOPC   C21 2791  10.722  12.019   5.552  0.0793 -0.1014 -0.1610
   21DOPC   O22 2792  10.797  11.926   5.567  0.0517 -0.0120 -0.3717
   21DOPC   C22 2793  10.713  12.097   5.419 -0.5591  0.7723 -0.0701
   21DOPC   H2R 2794  10.813  12.079   5.374 -0.4643  2.1992 -0.4850
   21DOPC   H2S 2795  10.701  12.205   5.445 -0.5118  0.4761  1.2781
   21DOPC    C3 2796  10.453  11.931   5.765  0.4272 -0.0028  0.1047
   21DOPC    HX 2797  10.405  12.031   5.770 -0.4514 -0.2114 -2.6055
   21DOPC    HY 2798  10.437  11.872   5.858 -2.1093 -0.8338 -0.7684
   21DOPC   O31 2799  10.395  11.851   5.651  0.1548 -0.5677 -0.2350
   21DOPC   C31 2800  10.281  11.898   5.598 -0.0117 -0.4517  0.4280
   21DOPC   O32 2801  10.213  11.985   5.650 -0.5833 -0.2832 -0.6339
   21DOPC   C32 2802  10.247  11.839   5.457  0.3356  0.1279 -0.4601
   21DOPC   H2X 2803  10.337  11.779   5.428  1.2991  1.0474  0.5415
   21DOPC   H2Y 2804  10.157  11.774   5.469  0.8476 -0.6042 -0.4685
   21DOPC   C23 2805  10.590  12.049   5.336 -0.9766 -0.1505 -0.5390
   21DOPC   H3R 2806  10.503  12.041   5.404 -0.6597  0.9841  0.0218
   21DOPC   H3S 2807  10.604  11.947   5.292  1.0879  0.3132 -1.0686
   21DOPC   C24 2808  10.546  12.130   5.215  0.4601 -0.2191 -0.1136
   21DOPC   H4R 2809  10.509  12.229   5.247  2.3464  0.4964 -0.0320
   21DOPC   H4S 2810  10.460  12.077   5.169  0.4330  0.2637 -0.6315
   21DOPC   C25 2811  10.653  12.164   5.114 -0.6554  0.3860  0.4427
   21DOPC   H5R 2812  10.689  12.067   5.074 -2.9976  1.0490 -3.8700
   21DOPC   H5S 2813  10.747  12.201   5.159  0.1534 -1.8886  0.7648
   21DOPC   C26 2814  10.605  12.265   4.998 -0.3593  0.2774 -0.7630
   21DOPC   H6R 2815  10.598  12.371   5.031 -0.7755 -0.4473  1.6264
   21DOPC   H6S 2816  10.502  12.229   4.974  0.3068 -0.9015 -1.9727
   21DOPC   C27 2817  10.706  12.260   4.881  0.3158 -0.4162  0.9455
   21DOPC   H7R 2818  10.676  12.168   4.825 -2.3312  0.8163  0.1973
   21DOPC   H7S 2819  10.808  12.252   4.923  0.4070 -1.2651  0.5886
   21DOPC   C28 2820  10.686  12.382   4.790 -0.7161 -0.1801 -0.0564
   21DOPC   H8R 2821  10.756  12.376   4.704  0.0515 -1.9481  0.6548
   21DOPC   H8S 2822  10.723  12.472   4.845 -2.2727 -1.0099  2.4991
   21DOPC   C29 2823  10.543  12.404   4.744 -0.3423  0.0764  0.4407
   21DOPC   H9R 2824  10.471  12.449   4.813  0.5639  1.4777  0.5136
   21DOPC  C210 2825  10.501  12.380   4.619 -0.2523 -0.2777  0.3525
   21DOPC  H10R 2826  10.398  12.410   4.596  0.2853  0.9145 -0.6440
   21DOPC  C211 2827  10.572  12.350   4.485  0.0080 -0.3375  0.4244
   21DOPC  H11R 2828  10.553  12.244   4.461  0.8977 -0.8405  1.8515
   21DOPC  H11S 2829  10.681  12.364   4.500  0.0428 -0.5509  0.3636
   21DOPC  C212 2830  10.518  12.434   4.370  0.7358  0.0472  0.2798
   21DOPC  H12R 2831  10.408  12.421   4.361  0.7227 -1.9896  2.3031
   21DOPC  H12S 2832  10.564  12.390   4.279  0.5515 -0.8542  0.6154
   21DOPC  C213 2833  10.556  12.579   4.383  0.1032 -0.6063  0.0861
   21DOPC  H13R 2834  10.664  12.583   4.409  0.0413 -0.2244  0.2883
   21DOPC  H13S 2835  10.489  12.615   4.463 -0.8427 -1.8900 -0.0994
   21DOPC  C214 2836  10.547  12.658   4.250  0.1311 -0.2833 -0.6741
   21DOPC  H14R 2837  10.448  12.629   4.210  0.6745  1.5627 -3.6574
   21DOPC  H14S 2838  10.627  12.619   4.183 -0.0042  0.8130 -1.4952
   21DOPC  C215 2839  10.579  12.806   4.274 -0.1925 -0.0229  0.2937
   21DOPC  H15R 2840  10.689  12.820   4.278  0.0272 -0.7565 -1.9647
   21DOPC  H15S 2841  10.526  12.832   4.368 -2.4468 -0.1142 -0.8757
   21DOPC  C216 2842  10.539  12.888   4.154  0.1701  0.7416 -0.0752
   21DOPC  H16R 2843  10.438  12.843   4.138  1.7430 -3.3035  0.1873
   21DOPC  H16S 2844  10.600  12.850   4.069 -1.4896  0.2998 -1.1300
   21DOPC  C217 2845  10.544  13.037   4.163  0.4980  0.6389  0.1752
   21DOPC  H17R 2846  10.482  13.075   4.079 -0.5706 -2.1050 -0.3831
   21DOPC  H17S 2847  10.646  13.072   4.136 -0.0367 -0.3491 -3.7088
   21DOPC  C218 2848  10.488  13.084   4.292  0.2423  0.4293 -0.0776
   21DOPC  H18R 2849  10.555  13.049   4.373  2.2341  1.0184 -1.3816
   21DOPC  H18S 2850  10.384  13.048   4.309  0.2356  0.5874  0.2195
   21DOPC  H18T 2851  10.483  13.195   4.297 -1.1976  0.6247 -3.1883
   21DOPC   C33 2852  10.210  11.943   5.346 -0.5815  0.6071 -0.3795
   21DOPC   H3X 2853  10.303  12.001   5.328  1.2726 -2.4020 -1.0779
   21DOPC   H3Y 2854  10.127  12.009   5.379  0.5525  0.9591  2.0051
   21DOPC   C34 2855  10.178  11.882   5.206 -0.9529  0.0609 -0.1163
   21DOPC   H4X 2856  10.097  11.806   5.201  1.6857 -3.1264  1.4757
   21DOPC   H4Y 2857  10.266  11.822   5.172  1.5962  3.2908  0.2539
   21DOPC   C35 2858  10.154  11.990   5.100 -0.3941 -0.1650 -0.3976
   21DOPC   H5X 2859  10.250  12.045   5.092  0.1992 -0.9170  1.0204
   21DOPC   H5Y 2860  10.068  12.056   5.125 -1.3386 -1.4031 -0.2724
   21DOPC   C36 2861  10.113  11.921   4.962 -0.0959 -0.0125  0.2785
   21DOPC   H6X 2862  10.197  11.867   4.915 -0.1534 -1.2135  1.4999
   21DOPC   H6Y 2863  10.041  11.844   4.995 -0.9001  0.8164  0.5221
   21DOPC   C37 2864  10.046  12.016   4.859 -0.4935  0.3115  0.0438
   21DOPC   H7X 2865  10.042  11.976   4.756  2.3315  1.0469 -0.4313
   21DOPC   H7Y 2866   9.945  12.043   4.898 -0.5749  0.6671 -0.4047
   21DOPC   C38 2867  10.125  12.146   4.839  0.1393 -0.3104  0.1426
   21DOPC   H8X 2868  10.149  12.205   4.930  2.6964 -2.2652  0.8540
   21DOPC   H8Y 2869  10.053  12.211   4.784 -2.2692 -1.2322  2.0493
   21DOPC   C39 2870  10.247  12.131   4.754 -0.4153  0.3600  0.2688
   21DOPC   H9X 2871  10.328  12.083   4.812 -2.3551 -0.5121  2.4403
   21DOPC  C310 2872  10.254  12.115   4.620  1.0865 -0.7594 -0.2313
   21DOPC  H10X 2873  10.353  12.093   4.578  0.9830 -1.3530 -0.1702
   21DOPC  C311 2874  10.134  12.143   4.528 -0.2633  1.3121 -0.3682
   21DOPC  H11X 2875  10.057  12.208   4.575 -0.2847  0.6008  0.6223
   21DOPC  H11Y 2876  10.075  12.052   4.503  2.1903 -0.1346 -1.3666
   21DOPC  C312 2877  10.182  12.223   4.404 -0.0760 -0.6886 -0.2226
   21DOPC  H12X 2878  10.266  12.288   4.435  0.2962 -1.1209 -0.3074
   21DOPC  H12Y 2879  10.094  12.286   4.377 -0.2877 -0.7262  0.3666
   21DOPC  C313 2880  10.232  12.131   4.287  0.5997 -0.5035 -0.4207
   21DOPC  H13X 2881  10.340  12.109   4.301  1.0485  2.2464  1.4700
   21DOPC  H13Y 2882  10.166  12.043   4.296 -0.1818  0.2081  1.3861
   21DOPC  C314 2883  10.207  12.197   4.153  0.0105 -0.3013  0.4561
   21DOPC  H14X 2884  10.261  12.294   4.152  2.2142 -1.4166  1.9736
   21DOPC  H14Y 2885  10.253  12.146   4.066  0.6747  0.6180  0.2553
   21DOPC  C315 2886  10.057  12.218   4.102 -0.5245 -0.3852 -0.1660
   21DOPC  H15X 2887  10.000  12.288   4.167 -2.3745 -1.1450 -0.8964
   21DOPC  H15Y 2888  10.021  12.114   4.118  1.0470 -0.7848  1.0843
   21DOPC  C316 2889  10.050  12.273   3.956  0.1338  0.3989 -0.2747
   21DOPC  H16X 2890  10.055  12.384   3.945  0.6940  0.3149 -0.8987
   21DOPC  H16Y 2891  10.129  12.221   3.898 -0.1723  0.0227 -0.3575
   21DOPC  C317 2892   9.908  12.240   3.897  0.2392  0.0179 -0.0271
   21DOPC  H17X 2893   9.890  12.130   3.901 -1.0780  0.2234  0.1739
   21DOPC  H17Y 2894   9.842  12.301   3.963 -0.1259 -0.8666  0.4417
   21DOPC  C318 2895   9.890  12.288   3.752 -0.2434  0.6561  0.5709
   21DOPC  H18X 2896   9.956  12.232   3.682  2.2010  2.6192  1.1507
   21DOPC  H18Y 2897   9.786  12.273   3.716  0.1551 -1.7780  0.3041
   21DOPC  H18Z 2898   9.916  12.396   3.744 -0.8377  0.7834  0.2997
   22DOPC     N 2899   5.750  10.077   6.266  0.0600  0.6801 -0.0165
   22DOPC   C12 2900   5.793  10.037   6.128 -0.0686  0.2689  0.2436
   22DOPC  H12A 2901   5.767   9.933   6.120 -3.2021  1.0751 -1.4453
   22DOPC  H12B 2902   5.901  10.036   6.127 -0.0491  1.0636 -0.3615
   22DOPC   C13 2903   5.770   9.959   6.359  0.9066 -0.6306 -0.4706
   22DOPC  H13A 2904   5.703   9.881   6.323 -1.0823  1.1745 -0.9035
   22DOPC  H13B 2905   5.873   9.928   6.353  1.1167 -0.1438  0.4419
   22DOPC  H13C 2906   5.734   9.969   6.460  2.1653  1.5481 -0.1817
   22DOPC   C14 2907   5.602  10.103   6.273 -0.2753  0.2428 -0.2843
   22DOPC  H14A 2908   5.567  10.196   6.230 -3.7971  0.2548  2.1188
   22DOPC  H14B 2909   5.556  10.015   6.230  2.5527 -0.7277 -1.5795
   22DOPC  H14C 2910   5.564  10.090   6.373  0.3065 -1.0502 -0.2186
   22DOPC   C15 2911   5.832  10.195   6.311 -0.2405 -0.2016 -0.2124
   22DOPC  H15A 2912   5.806  10.223   6.412 -0.6659  0.8691 -0.6025
   22DOPC  H15B 2913   5.806  10.279   6.248 -0.3689  0.0996  0.2372
   22DOPC  H15C 2914   5.938  10.181   6.301 -0.2826  0.3926 -1.8047
   22DOPC   C11 2915   5.745  10.123   6.004  0.2390  0.0484 -0.1311
   22DOPC  H11A 2916   5.780  10.083   5.906 -0.4075  0.0616 -0.3768
   22DOPC  H11B 2917   5.634  10.116   5.995  0.2943  0.7501 -1.8438
   22DOPC     P 2918   5.890  10.339   5.972  0.1506  0.0498 -0.1140
   22DOPC   O13 2919   5.987  10.240   5.916  0.3533  0.0855 -0.0376
   22DOPC   O14 2920   5.936  10.414   6.091 -0.4399  0.2292  0.2283
   22DOPC   O12 2921   5.757  10.267   6.013  0.0354 -0.3612  0.0980
   22DOPC   O11 2922   5.847  10.437   5.860 -0.1824 -0.0558  0.2943
   22DOPC    C1 2923   5.760  10.404   5.755  0.4678 -0.0843 -0.2689
   22DOPC    HA 2924   5.717  10.493   5.704 -0.1687 -0.4830 -0.4363
   22DOPC    HB 2925   5.670  10.357   5.800 -1.8283  1.1553 -3.2150
   22DOPC    C2 2926   5.828  10.315   5.642  0.4963  0.2024  0.1806
   22DOPC    HS 2927   5.856  10.219   5.690 -1.4228 -0.6306 -0.2430
   22DOPC   O21 2928   5.944  10.386   5.590 -0.3916 -0.4521  0.5181
   22DOPC   C21 2929   6.032  10.307   5.532 -0.0566 -0.5805 -0.1104
   22DOPC   O22 2930   6.037  10.186   5.532  0.2013  0.3571  0.6023
   22DOPC   C22 2931   6.129  10.397   5.456  0.7170  0.3479 -0.5906
   22DOPC   H2R 2932   6.166  10.474   5.527 -1.6289  0.0853  1.0127
   22DOPC   H2S 2933   6.065  10.451   5.383  0.3126  0.7388  0.0544
   22DOPC    C3 2934   5.715  10.290   5.529  0.3059  0.1709  0.3948
   22DOPC    HX 2935   5.691  10.389   5.484 -3.0374 -1.7754 -2.7088
   22DOPC    HY 2936   5.620  10.258   5.578 -1.0489  1.1859 -1.4153
   22DOPC   O31 2937   5.754  10.198   5.427 -0.2180  0.0811 -0.0006
   22DOPC   C31 2938   5.769  10.073   5.467  0.2261 -0.1504  0.5239
   22DOPC   O32 2939   5.744  10.035   5.581  0.2577 -0.1848  0.1449
   22DOPC   C32 2940   5.816   9.981   5.351 -0.1021 -1.1274  0.1833
   22DOPC   H2X 2941   5.754  10.001   5.261  0.6140  1.7601  0.2465
   22DOPC   H2Y 2942   5.914  10.022   5.318  0.0814 -1.8719 -0.2202
   22DOPC   C23 2943   6.243  10.319   5.380 -0.4456  0.2736 -0.3744
   22DOPC   H3R 2944   6.296  10.248   5.447 -0.5283  0.3654 -0.2113
   22DOPC   H3S 2945   6.316  10.395   5.344 -1.1500  0.5322 -1.2896
   22DOPC   C24 2946   6.192  10.247   5.251 -0.0152  0.1406  0.0178
   22DOPC   H4R 2947   6.109  10.304   5.205  0.3991  1.3981  0.7805
   22DOPC   H4S 2948   6.134  10.157   5.282  0.4817 -0.6224 -1.1992
   22DOPC   C25 2949   6.303  10.219   5.148 -0.0549  0.1600 -0.2533
   22DOPC   H5R 2950   6.378  10.149   5.190 -2.4399 -0.5403  3.2388
   22DOPC   H5S 2951   6.356  10.315   5.126  0.7276 -0.2123 -0.0428
   22DOPC   C26 2952   6.238  10.161   5.022  0.2260  0.2761 -0.3321
   22DOPC   H6R 2953   6.168  10.234   4.978 -0.9011 -1.1030 -0.9260
   22DOPC   H6S 2954   6.179  10.072   5.053  0.4132  0.9436  2.1203
   22DOPC   C27 2955   6.339  10.134   4.919 -0.4185  0.1395 -0.0870
   22DOPC   H7R 2956   6.398  10.049   4.958 -3.3435 -1.5998  0.8715
   22DOPC   H7S 2957   6.397  10.224   4.892  1.7798 -1.7900 -2.2728
   22DOPC   C28 2958   6.266  10.095   4.791  0.2068 -0.0239 -0.2975
   22DOPC   H8R 2959   6.180  10.027   4.808  0.7652 -0.3743  1.4257
   22DOPC   H8S 2960   6.340  10.028   4.742  0.2283  0.0859 -0.4151
   22DOPC   C29 2961   6.231  10.209   4.693 -0.4990 -0.0599 -0.2187
   22DOPC   H9R 2962   6.311  10.255   4.633 -0.8808  0.6396 -0.2149
   22DOPC  C210 2963   6.109  10.265   4.677  0.6425  0.2816  0.5510
   22DOPC  H10R 2964   6.099  10.330   4.588  0.2779 -1.7478 -0.9794
   22DOPC  C211 2965   5.976  10.218   4.732 -0.2068  0.2337  0.4885
   22DOPC  H11R 2966   5.925  10.302   4.783  0.6821  1.6726 -0.9050
   22DOPC  H11S 2967   5.980  10.134   4.804 -0.7846 -1.3887 -1.2813
   22DOPC  C212 2968   5.888  10.170   4.620 -0.1430 -0.0155 -0.6676
   22DOPC  H12R 2969   5.868  10.238   4.535  0.3758 -0.4577 -1.1505
   22DOPC  H12S 2970   5.795  10.137   4.671  0.7868 -3.8754 -1.1724
   22DOPC  C213 2971   5.919  10.030   4.568 -0.2018  0.7376 -0.6756
   22DOPC  H13R 2972   5.920   9.960   4.655 -2.4000 -1.2823 -2.1746
   22DOPC  H13S 2973   6.013  10.024   4.510 -0.7986  0.7598 -1.6608
   22DOPC  C214 2974   5.802   9.962   4.489  0.1315 -0.7320 -0.2026
   22DOPC  H14R 2975   5.718   9.937   4.557 -1.0761 -1.0767 -1.7640
   22DOPC  H14S 2976   5.852   9.867   4.462  4.0412  1.2332 -0.6500
   22DOPC  C215 2977   5.758  10.034   4.356 -0.4790  0.2024 -0.2846
   22DOPC  H15R 2978   5.844  10.045   4.286  1.7037 -0.2556  2.1480
   22DOPC  H15S 2979   5.720  10.137   4.377 -1.5265 -0.1456 -0.4439
   22DOPC  C216 2980   5.657   9.960   4.277 -0.3002  0.3964  0.4760
   22DOPC  H16R 2981   5.566   9.943   4.338  0.7610 -0.3540  1.8847
   22DOPC  H16S 2982   5.698   9.865   4.236 -2.9336  0.0659 -1.7218
   22DOPC  C217 2983   5.622  10.050   4.153  0.6754  0.2450 -0.3372
   22DOPC  H17R 2984   5.711  10.063   4.088 -0.0698 -1.1968 -1.7376
   22DOPC  H17S 2985   5.599  10.153   4.186 -0.3619 -0.4964  1.4020
   22DOPC  C218 2986   5.506   9.997   4.074  0.4923  0.2995 -0.3187
   22DOPC  H18R 2987   5.489  10.062   3.986 -1.9236  1.2179  0.7412
   22DOPC  H18S 2988   5.410  10.007   4.128  0.7060  1.0179 -0.0699
   22DOPC  H18T 2989   5.517   9.890   4.044 -0.9437  0.4133 -1.3407
   22DOPC   C33 2990   5.825   9.831   5.383 -0.1885 -0.3498 -0.6949
   22DOPC   H3X 2991   5.723   9.798   5.413  0.2357  1.6333  3.6012
   22DOPC   H3Y 2992   5.888   9.815   5.473 -0.5928 -0.8744 -0.4966
   22DOPC   C34 2993   5.893   9.757   5.272  0.1120  0.1484 -0.0351
   22DOPC   H4X 2994   5.880   9.649   5.294 -1.1296  0.2725 -0.0738
   22DOPC   H4Y 2995   5.999   9.789   5.265 -0.4078  1.5865 -3.5517
   22DOPC   C35 2996   5.823   9.768   5.134 -0.4358  0.2601 -0.4095
   22DOPC   H5X 2997   5.847   9.861   5.080  0.7581  0.9631  1.2676
   22DOPC   H5Y 2998   5.713   9.773   5.154 -0.3437  2.4944 -0.2214
   22DOPC   C36 2999   5.854   9.645   5.046 -0.1576 -0.2508 -0.0608
   22DOPC   H6X 3000   5.960   9.622   5.067 -0.3327 -2.1047 -1.0450
   22DOPC   H6Y 3001   5.791   9.560   5.079  0.3361 -0.9202 -0.8164
   22DOPC   C37 3002   5.832   9.683   4.894  0.0664 -0.0883 -1.2944
   22DOPC   H7X 3003   5.723   9.706   4.893 -0.1002 -0.0343  2.5907
   22DOPC   H7Y 3004   5.894   9.772   4.871 -2.0400  2.2768  1.3984
   22DOPC   C38 3005   5.858   9.571   4.783  0.0403  0.3273 -0.4561
   22DOPC   H8X 3006   5.945   9.520   4.830 -1.6307 -2.1069  0.2310
   22DOPC   H8Y 3007   5.880   9.631   4.692  1.8060  0.9569  0.3560
   22DOPC   C39 3008   5.748   9.468   4.767 -0.1075 -0.4685  0.0647
   22DOPC   H9X 3009   5.757   9.378   4.829  1.1927 -0.8545 -0.6347
   22DOPC  C310 3010   5.639   9.487   4.690  0.0952 -0.0599 -0.1983
   22DOPC  H10X 3011   5.564   9.408   4.674 -0.7682  0.2732  1.8700
   22DOPC  C311 3012   5.614   9.606   4.606 -0.1335 -0.0176  0.6267
   22DOPC  H11X 3013   5.687   9.685   4.635 -0.6146  1.7655 -2.5834
   22DOPC  H11Y 3014   5.511   9.644   4.619 -0.4611 -1.2086  1.7140
   22DOPC  C312 3015   5.624   9.592   4.456 -0.9542 -0.1136 -0.1716
   22DOPC  H12X 3016   5.730   9.598   4.424  0.1105  0.9027  3.1240
   22DOPC  H12Y 3017   5.585   9.687   4.414  0.1617  0.4455  0.0249
   22DOPC  C313 3018   5.539   9.474   4.408 -0.5598 -0.6532 -0.3271
   22DOPC  H13X 3019   5.593   9.378   4.425  1.8611  0.7654  0.4020
   22DOPC  H13Y 3020   5.448   9.476   4.471 -2.1574  0.5977 -2.5307
   22DOPC  C314 3021   5.497   9.497   4.258  0.2978  1.0996  0.3936
   22DOPC  H14X 3022   5.426   9.421   4.219 -0.5099  2.1757 -0.2773
   22DOPC  H14Y 3023   5.442   9.592   4.272 -2.7441 -0.5290  0.3899
   22DOPC  C315 3024   5.619   9.507   4.158  0.1248  0.0546 -0.4007
   22DOPC  H15X 3025   5.691   9.431   4.195 -0.1190 -0.6275 -1.3100
   22DOPC  H15Y 3026   5.668   9.606   4.176 -0.2468 -0.0369  1.3090
   22DOPC  C316 3027   5.588   9.477   4.009  0.3724  0.1315 -0.0754
   22DOPC  H16X 3028   5.680   9.481   3.946 -0.6207  1.5896 -1.5111
   22DOPC  H16Y 3029   5.546   9.374   4.009  0.0615  0.2569  0.1137
   22DOPC  C317 3030   5.504   9.570   3.925  1.0698 -0.0567 -0.3059
   22DOPC  H17X 3031   5.408   9.584   3.979  1.6862  1.7420  0.4099
   22DOPC  H17Y 3032   5.557   9.668   3.927  1.2587 -0.0524 -2.6845
   22DOPC  C318 3033   5.490   9.518   3.781 -0.0706 -0.4056 -0.3287
   22DOPC  H18X 3034   5.584   9.541   3.725 -0.4142  0.7024 -0.4712
   22DOPC  H18Y 3035   5.449   9.416   3.769 -2.9075  0.5549  0.4457
   22DOPC  H18Z 3036   5.427   9.588   3.722 -0.6230  0.7371  1.5109
   23DOPC     N 3037  10.373   5.243   5.827  0.0986 -0.2553 -0.0828
   23DOPC   C12 3038  10.421   5.107   5.772 -0.6028  0.3775 -0.2707
   23DOPC  H12A 3039  10.453   5.044   5.854 -1.0545  3.0643  2.1410
   23DOPC  H12B 3040  10.514   5.137   5.727 -1.4325  1.5942 -1.2483
   23DOPC   C13 3041  10.255   5.239   5.919  0.1403  0.4636  0.0575
   23DOPC  H13A 3042  10.179   5.191   5.861  1.6595 -1.0937 -0.7339
   23DOPC  H13B 3043  10.281   5.171   5.999  2.5330  1.1146 -0.0862
   23DOPC  H13C 3044  10.217   5.336   5.949  1.7017  1.2265 -0.3003
   23DOPC   C14 3045  10.340   5.330   5.704  0.0249  0.4616  0.0430
   23DOPC  H14A 3046  10.328   5.434   5.731  2.2483  0.2303  2.3843
   23DOPC  H14B 3047  10.408   5.315   5.622 -0.5670  0.3746 -0.4391
   23DOPC  H14C 3048  10.244   5.304   5.661 -0.4470  1.1298  0.6637
   23DOPC   C15 3049  10.498   5.300   5.897  0.5812 -0.4810 -0.3411
   23DOPC  H15A 3050  10.477   5.285   6.002  0.6651 -0.7599 -0.3632
   23DOPC  H15B 3051  10.512   5.403   5.870  1.4811  0.2542  2.5193
   23DOPC  H15C 3052  10.591   5.259   5.860  2.4994  2.7346  0.5285
   23DOPC   C11 3053  10.330   5.039   5.666 -0.6829  0.1461 -0.4395
   23DOPC  H11A 3054  10.307   5.112   5.586  0.4287  0.7402 -0.2288
   23DOPC  H11B 3055  10.381   4.947   5.630  0.5421  1.6981 -2.9380
   23DOPC     P 3056  10.150   4.889   5.798  0.4962  0.4096 -0.1253
   23DOPC   O13 3057  10.008   4.919   5.828  1.0572 -0.0271 -0.0188
   23DOPC   O14 3058  10.229   4.863   5.913  0.3738 -0.0887 -0.6285
   23DOPC   O12 3059  10.200   5.010   5.722  0.3354 -0.3214  0.4526
   23DOPC   O11 3060  10.153   4.763   5.695 -0.3586  0.0809 -0.4495
   23DOPC    C1 3061  10.062   4.766   5.585 -0.5714  0.0623  0.7519
   23DOPC    HA 3062  10.066   4.866   5.536 -0.3533 -0.7171 -0.9081
   23DOPC    HB 3063   9.956   4.759   5.616 -0.8279  0.7611  0.0381
   23DOPC    C2 3064  10.104   4.667   5.474 -0.0297  0.3505 -0.5256
   23DOPC    HS 3065  10.055   4.712   5.385  1.3385  1.1431 -0.9166
   23DOPC   O21 3066  10.049   4.533   5.499 -0.2605  0.1132 -0.0805
   23DOPC   C21 3067  10.018   4.464   5.386 -0.6913  0.3543  0.1812
   23DOPC   O22 3068  10.010   4.508   5.275 -0.1922  0.8145 -0.4516
   23DOPC   C22 3069  10.007   4.321   5.436 -0.7643  0.2356  0.3106
   23DOPC   H2R 3070   9.901   4.311   5.468 -0.6618  0.5113  0.7481
   23DOPC   H2S 3071  10.072   4.303   5.524  0.8854  0.7880 -0.7571
   23DOPC    C3 3072  10.262   4.652   5.466  0.2056  0.4988 -0.9538
   23DOPC    HX 3073  10.296   4.589   5.550 -0.5735 -0.9117 -1.6576
   23DOPC    HY 3074  10.301   4.755   5.479 -0.8222  0.7180  0.6454
   23DOPC   O31 3075  10.290   4.580   5.342 -0.3063  0.0864 -0.0622
   23DOPC   C31 3076  10.411   4.609   5.294 -0.4446 -0.2594  0.7183
   23DOPC   O32 3077  10.505   4.666   5.346  0.1498 -0.1922  0.2358
   23DOPC   C32 3078  10.418   4.559   5.149 -0.7382  0.9062  0.1930
   23DOPC   H2X 3079  10.526   4.541   5.132 -0.5758  2.0895 -0.1355
   23DOPC   H2Y 3080  10.356   4.468   5.136 -0.7858  0.9009  0.4498
   23DOPC   C23 3081  10.041   4.221   5.318  0.1585 -0.0075 -0.2401
   23DOPC   H3R 3082   9.972   4.218   5.231  2.2317  0.9981 -2.0306
   23DOPC   H3S 3083  10.031   4.120   5.363 -2.4327  1.2279  2.2667
   23DOPC   C24 3084  10.190   4.225   5.281 -0.5848 -0.4723 -0.3576
   23DOPC   H4R 3085  10.254   4.211   5.370 -2.0632  1.0539  1.0079
   23DOPC   H4S 3086  10.216   4.327   5.247  0.5867 -0.7228 -0.2579
   23DOPC   C25 3087  10.232   4.129   5.163  0.1166 -0.3495 -0.2330
   23DOPC   H5R 3088  10.217   4.021   5.186 -0.7455 -0.1699  0.0809
   23DOPC   H5S 3089  10.338   4.150   5.137  0.2626 -2.3147 -1.4995
   23DOPC   C26 3090  10.159   4.171   5.032 -0.4368  0.7780 -0.2855
   23DOPC   H6R 3091  10.152   4.282   5.032 -2.4243  0.7050 -1.2859
   23DOPC   H6S 3092  10.062   4.119   5.042  0.5469 -0.9186  0.9913
   23DOPC   C27 3093  10.228   4.127   4.900 -0.2585  0.2750  0.0319
   23DOPC   H7R 3094  10.212   4.018   4.887 -0.7220  0.1798  1.2468
   23DOPC   H7S 3095  10.337   4.143   4.910  0.8578 -3.9983 -2.5931
   23DOPC   C28 3096  10.170   4.201   4.779  0.0280 -0.6447  0.1520
   23DOPC   H8R 3097  10.204   4.306   4.779  2.7250 -1.4042  2.0706
   23DOPC   H8S 3098  10.060   4.191   4.786  0.0722 -0.4597  1.2427
   23DOPC   C29 3099  10.235   4.150   4.654  0.6838 -0.6777 -0.4065
   23DOPC   H9R 3100  10.336   4.192   4.645 -0.0636  1.2387 -0.5660
   23DOPC  C210 3101  10.178   4.072   4.555  0.1663 -0.3593 -0.7241
   23DOPC  H10R 3102  10.240   4.041   4.470  3.0886 -1.1036  1.5149
   23DOPC  C211 3103  10.037   4.016   4.551  0.0541 -0.2515 -0.1863
   23DOPC  H11R 3104   9.986   4.047   4.457  0.3298  0.8470  0.0200
   23DOPC  H11S 3105   9.969   4.048   4.633  0.2392  0.2261 -0.2209
   23DOPC  C212 3106  10.041   3.865   4.573 -0.7866 -0.8446 -0.3731
   23DOPC  H12R 3107  10.089   3.818   4.484 -3.0579  0.0311 -2.1639
   23DOPC  H12S 3108   9.939   3.822   4.563 -0.2343 -1.9928 -1.3897
   23DOPC  C213 3109  10.098   3.832   4.716 -0.2941  0.2934 -0.2682
   23DOPC  H13R 3110  10.046   3.879   4.802  0.1755 -1.1988  0.8755
   23DOPC  H13S 3111  10.205   3.861   4.717 -0.2053 -0.0346  0.4478
   23DOPC  C214 3112  10.113   3.683   4.755  0.2751 -0.1430  0.5122
   23DOPC  H14R 3113  10.011   3.645   4.774 -0.2367  1.0378  0.2619
   23DOPC  H14S 3114  10.159   3.683   4.857 -2.6304 -1.6227  1.9444
   23DOPC  C215 3115  10.192   3.602   4.652  0.4677  0.0382 -0.6120
   23DOPC  H15R 3116  10.296   3.638   4.643 -0.2394  2.8469  1.1628
   23DOPC  H15S 3117  10.153   3.607   4.548  0.1953  0.2554 -0.5013
   23DOPC  C216 3118  10.196   3.451   4.695  0.3775 -0.4682 -0.0894
   23DOPC  H16R 3119  10.089   3.432   4.718  0.5473 -2.3074 -0.6204
   23DOPC  H16S 3120  10.254   3.439   4.789  1.5485  1.1528 -0.5598
   23DOPC  C217 3121  10.239   3.343   4.589  0.1325  0.1798 -0.0061
   23DOPC  H17R 3122  10.343   3.371   4.562 -0.2881 -0.7583 -2.8868
   23DOPC  H17S 3123  10.180   3.351   4.496 -0.6112 -1.9453  0.2312
   23DOPC  C218 3124  10.243   3.207   4.660 -0.0296 -0.4254 -0.5479
   23DOPC  H18R 3125  10.324   3.200   4.736 -0.0468 -0.3783 -0.5260
   23DOPC  H18S 3126  10.261   3.120   4.593 -0.3131 -1.1033  0.2390
   23DOPC  H18T 3127  10.149   3.184   4.714  1.3899 -3.3832  0.9377
   23DOPC   C33 3128  10.372   4.660   5.043  0.0886  0.2450  0.3892
   23DOPC   H3X 3129  10.441   4.747   5.051  0.2595  0.1133  0.3398
   23DOPC   H3Y 3130  10.273   4.705   5.064 -0.5129 -1.4022  1.2704
   23DOPC   C34 3131  10.379   4.614   4.896 -0.5670 -0.1633 -0.4984
   23DOPC   H4X 3132  10.363   4.694   4.821 -0.3566  0.1372 -0.2245
   23DOPC   H4Y 3133  10.296   4.541   4.881 -3.1237  2.1359  1.4572
   23DOPC   C35 3134  10.510   4.539   4.860 -0.0895  0.6304  0.8181
   23DOPC   H5X 3135  10.517   4.454   4.932  1.3666  0.8934  1.0029
   23DOPC   H5Y 3136  10.592   4.606   4.891 -0.7628  1.4486  0.8706
   23DOPC   C36 3137  10.518   4.490   4.714  0.2119 -0.0874  0.0049
   23DOPC   H6X 3138  10.443   4.413   4.686 -1.3283  1.7067 -1.0457
   23DOPC   H6Y 3139  10.496   4.577   4.650 -0.7117 -1.7839 -2.1109
   23DOPC   C37 3140  10.661   4.439   4.683  0.1090  0.6288 -0.0374
   23DOPC   H7X 3141  10.733   4.519   4.709 -0.6181  1.3695 -0.2390
   23DOPC   H7Y 3142  10.684   4.350   4.745 -1.2580  0.9600  0.9826
   23DOPC   C38 3143  10.663   4.405   4.532 -0.1473  0.4035  0.0063
   23DOPC   H8X 3144  10.614   4.493   4.486 -2.0329  0.4367  1.9264
   23DOPC   H8Y 3145  10.604   4.313   4.509 -0.0711  0.5906 -0.9981
   23DOPC   C39 3146  10.810   4.388   4.495 -0.0418  0.0948 -0.3188
   23DOPC   H9X 3147  10.857   4.316   4.563  0.8515 -1.5529 -2.5410
   23DOPC  C310 3148  10.893   4.469   4.434 -0.4655  0.0387  0.2576
   23DOPC  H10X 3149  10.996   4.440   4.412 -1.1849 -1.0433 -1.9361
   23DOPC  C311 3150  10.866   4.596   4.359 -0.7861  0.1038  0.2713
   23DOPC  H11X 3151  10.852   4.684   4.425 -1.1465  0.8575 -0.7870
   23DOPC  H11Y 3152  10.769   4.582   4.307 -1.5150 -0.9950  1.8479
   23DOPC  C312 3153  10.957   4.643   4.243 -0.6393 -0.3511  0.4570
   23DOPC  H12X 3154  10.893   4.717   4.190 -0.7742  0.2557  1.4424
   23DOPC  H12Y 3155  10.990   4.560   4.177  0.8978  1.1009 -0.6531
   23DOPC  C313 3156  11.090   4.706   4.297 -0.8316 -0.0769  0.0654
   23DOPC  H13X 3157  11.060   4.770   4.383  0.4903 -0.9343  1.2039
   23DOPC  H13Y 3158  11.161   4.624   4.323 -0.4842 -0.1583 -1.0793
   23DOPC  C314 3159  11.159   4.791   4.191 -0.3826 -0.8020  0.0943
   23DOPC  H14X 3160  11.173   4.741   4.093 -1.5823  1.0817 -1.1045
   23DOPC  H14Y 3161  11.088   4.874   4.171  1.5783  0.9572 -0.0213
   23DOPC  C315 3162  11.292   4.857   4.240  0.2484 -0.3741  0.0012
   23DOPC  H15X 3163  11.357   4.781   4.291  0.1942 -0.0722  0.5245
   23DOPC  H15Y 3164  11.275   4.926   4.325 -1.7218 -1.9668  0.9978
   23DOPC  C316 3165  11.360   4.930   4.124  0.2616  0.1111 -0.1925
   23DOPC  H16X 3166  11.372   4.862   4.037  2.5207  2.9780 -2.3309
   23DOPC  H16Y 3167  11.306   5.016   4.080 -1.0420 -0.3802  0.4075
   23DOPC  C317 3168  11.513   4.971   4.146  0.7950  0.1850 -0.4631
   23DOPC  H17X 3169  11.510   5.060   4.213 -1.3828 -0.0163 -0.2095
   23DOPC  H17Y 3170  11.566   4.901   4.213 -1.0397  0.6071  1.5570
   23DOPC  C318 3171  11.585   4.999   4.012 -0.9421  0.1559  0.8001
   23DOPC  H18X 3172  11.586   4.906   3.952  0.7776 -0.5349  1.8170
   23DOPC  H18Y 3173  11.537   5.083   3.957 -2.6021 -0.5793  1.0516
   23DOPC  H18Z 3174  11.695   5.011   4.024 -1.0500  0.3190  1.7077
   24DOPC     N 3175   1.081   3.064   5.792 -0.5079  0.2175 -0.1589
   24DOPC   C12 3176   1.229   3.069   5.760  0.5510  0.0202 -0.4390
   24DOPC  H12A 3177   1.276   2.984   5.808  0.7969  0.7204  0.6092
   24DOPC  H12B 3178   1.272   3.150   5.817 -0.1320 -0.7913  1.3158
   24DOPC   C13 3179   1.024   2.938   5.735 -0.1078  0.2646 -0.4813
   24DOPC  H13A 3180   1.095   2.859   5.756 -1.0065 -0.5425 -0.3955
   24DOPC  H13B 3181   0.930   2.920   5.786  1.0369 -1.4800  1.1511
   24DOPC  H13C 3182   1.010   2.936   5.628  0.3014 -2.0309 -0.5386
   24DOPC   C14 3183   0.999   3.177   5.745  0.5045 -0.0303 -0.2303
   24DOPC  H14A 3184   1.005   3.169   5.637  0.7648 -0.3859 -0.1928
   24DOPC  H14B 3185   0.897   3.167   5.778  1.1559 -0.4499  1.7387
   24DOPC  H14C 3186   1.042   3.274   5.767  0.7766 -0.5218  1.5034
   24DOPC   C15 3187   1.062   3.061   5.944  0.3440  0.7680  0.2874
   24DOPC  H15A 3188   1.118   2.976   5.981  2.0492  0.2911 -3.0669
   24DOPC  H15B 3189   0.957   3.052   5.967 -0.3006  1.4942 -2.0789
   24DOPC  H15C 3190   1.102   3.151   5.991  2.2191  1.0427 -1.6718
   24DOPC   C11 3191   1.255   3.075   5.609  0.0311  0.0606 -0.2041
   24DOPC  H11A 3192   1.363   3.049   5.601  0.2865  1.1442 -0.4735
   24DOPC  H11B 3193   1.197   3.002   5.549  0.9880  1.5277 -3.0936
   24DOPC     P 3194   1.320   3.327   5.578 -0.4086 -0.0467 -0.1897
   24DOPC   O13 3195   1.326   3.356   5.725 -0.3492  0.4070 -0.3692
   24DOPC   O14 3196   1.283   3.439   5.489 -0.1250 -0.4938 -0.0689
   24DOPC   O12 3197   1.230   3.201   5.556 -0.2261  0.1204 -0.0945
   24DOPC   O11 3198   1.469   3.275   5.547 -0.1470 -0.5877  0.1385
   24DOPC    C1 3199   1.549   3.335   5.439  0.4604  0.2539 -0.2297
   24DOPC    HA 3200   1.646   3.282   5.436  0.4148  0.1774 -0.3425
   24DOPC    HB 3201   1.573   3.441   5.462  1.9628 -0.0904 -0.1380
   24DOPC    C2 3202   1.482   3.309   5.297 -0.2506 -0.1846  0.0591
   24DOPC    HS 3203   1.392   3.374   5.285 -0.2442  0.0256  1.1216
   24DOPC   O21 3204   1.453   3.170   5.284  0.5287 -0.3318 -0.0645
   24DOPC   C21 3205   1.351   3.150   5.199 -0.2564 -0.7085  0.5552
   24DOPC   O22 3206   1.295   3.228   5.120 -0.1300 -0.3320 -0.3398
   24DOPC   C22 3207   1.311   3.002   5.217  0.2998  0.1322 -0.4449
   24DOPC   H2R 3208   1.288   2.993   5.325 -2.4555  0.9046 -0.8944
   24DOPC   H2S 3209   1.398   2.933   5.210 -0.5182 -0.9164 -0.4680
   24DOPC    C3 3210   1.584   3.353   5.184  0.2591  0.0217  0.0116
   24DOPC    HX 3211   1.680   3.305   5.212 -0.1277 -0.3884  0.6555
   24DOPC    HY 3212   1.614   3.459   5.197  1.0327  0.0071 -1.4840
   24DOPC   O31 3213   1.556   3.310   5.054  0.4416  0.1238 -0.4119
   24DOPC   C31 3214   1.484   3.411   4.989  0.1154 -0.2951 -0.6421
   24DOPC   O32 3215   1.464   3.519   5.040  0.1929 -0.7773  0.1678
   24DOPC   C32 3216   1.442   3.357   4.858  0.7798 -0.0557 -0.0831
   24DOPC   H2X 3217   1.533   3.354   4.795  1.0885 -1.1097  0.3844
   24DOPC   H2Y 3218   1.410   3.251   4.872  1.9325 -0.3705  0.3354
   24DOPC   C23 3219   1.183   2.954   5.152  0.5203  0.1372 -0.2209
   24DOPC   H3R 3220   1.093   3.004   5.196 -1.0170 -2.9362  0.3937
   24DOPC   H3S 3221   1.171   2.847   5.176 -1.9029 -0.0237 -1.7521
   24DOPC   C24 3222   1.176   2.971   5.000 -0.4683 -0.3407 -0.1770
   24DOPC   H4R 3223   1.215   3.071   4.969 -1.8705  0.7118  1.2649
   24DOPC   H4S 3224   1.072   2.972   4.959 -0.4403 -0.0270 -0.2433
   24DOPC   C25 3225   1.265   2.870   4.929 -0.0285 -0.5046  0.4505
   24DOPC   H5R 3226   1.247   2.764   4.960 -1.3037 -0.3226  0.3665
   24DOPC   H5S 3227   1.374   2.880   4.947 -0.2504 -0.0417  1.6306
   24DOPC   C26 3228   1.236   2.871   4.782 -0.7123 -0.0220  0.3859
   24DOPC   H6R 3229   1.127   2.856   4.768 -0.5789  0.6262 -1.7880
   24DOPC   H6S 3230   1.293   2.788   4.734  0.1441  1.3463 -1.0934
   24DOPC   C27 3231   1.273   3.004   4.717 -0.0071 -0.5533  0.4530
   24DOPC   H7R 3232   1.372   3.026   4.761 -0.8311 -1.2874  2.8445
   24DOPC   H7S 3233   1.211   3.086   4.760  1.6078  1.5010 -0.9520
   24DOPC   C28 3234   1.261   3.010   4.561  0.1123 -0.2292  0.4877
   24DOPC   H8R 3235   1.320   3.093   4.516  1.7421 -2.1522 -1.1542
   24DOPC   H8S 3236   1.152   3.022   4.545  0.0917  0.1324  0.8869
   24DOPC   C29 3237   1.313   2.887   4.488  0.1671 -0.2304 -0.2486
   24DOPC   H9R 3238   1.389   2.831   4.545 -0.0124  0.6635  0.9205
   24DOPC  C210 3239   1.274   2.848   4.365  0.0058  0.3979  0.3840
   24DOPC  H10R 3240   1.307   2.750   4.328 -2.5654 -0.1089 -0.7719
   24DOPC  C211 3241   1.183   2.922   4.282  0.3511 -0.0860 -0.3881
   24DOPC  H11R 3242   1.221   3.025   4.267 -0.1776  0.0043 -1.1641
   24DOPC  H11S 3243   1.087   2.921   4.339 -1.2416 -1.8517 -2.9002
   24DOPC  C212 3244   1.151   2.853   4.142  0.9305  0.0672 -0.2482
   24DOPC  H12R 3245   1.117   2.750   4.167  1.9531 -0.4321 -0.8732
   24DOPC  H12S 3246   1.244   2.842   4.083  0.0071  1.0379 -1.9635
   24DOPC  C213 3247   1.040   2.925   4.058 -0.5707  0.2381  0.1833
   24DOPC  H13R 3248   1.045   3.036   4.055 -1.4220  0.3037  0.8550
   24DOPC  H13S 3249   0.940   2.899   4.099 -0.9562  0.6117 -0.4911
   24DOPC  C214 3250   1.037   2.872   3.916 -0.1915 -0.3210  0.4677
   24DOPC  H14R 3251   1.007   2.767   3.899  1.1040 -0.2734 -2.9788
   24DOPC  H14S 3252   1.138   2.887   3.872 -0.5480  0.7965 -0.0044
   24DOPC  C215 3253   0.930   2.955   3.835 -0.2596  0.1076 -0.8144
   24DOPC  H15R 3254   0.920   3.058   3.875 -0.0953  0.3304 -1.3472
   24DOPC  H15S 3255   0.833   2.901   3.846  0.5942 -1.3246 -0.0219
   24DOPC  C216 3256   0.955   2.960   3.685  1.0114 -0.1448  0.5689
   24DOPC  H16R 3257   0.973   2.865   3.630 -1.3319  1.7436 -3.9423
   24DOPC  H16S 3258   1.038   3.019   3.642  1.1632  0.0821  1.1729
   24DOPC  C217 3259   0.824   3.025   3.619 -0.5449 -0.1031  0.2763
   24DOPC  H17R 3260   0.832   3.131   3.651  0.3132  0.0255 -0.3271
   24DOPC  H17S 3261   0.734   2.971   3.654 -1.2284  1.0679  0.3560
   24DOPC  C218 3262   0.832   3.015   3.464 -0.3965  0.2477 -0.4219
   24DOPC  H18R 3263   0.748   3.061   3.408 -0.6990 -0.7844 -0.8464
   24DOPC  H18S 3264   0.838   2.906   3.443  0.6224  0.0581  0.7265
   24DOPC  H18T 3265   0.931   3.046   3.427 -0.2136  1.6066  1.0980
   24DOPC   C33 3266   1.327   3.437   4.795  0.6644 -0.1253  0.6454
   24DOPC   H3X 3267   1.355   3.544   4.796 -0.8002  0.4178 -3.1357
   24DOPC   H3Y 3268   1.245   3.415   4.866 -0.6429 -1.6404 -1.2344
   24DOPC   C34 3269   1.290   3.391   4.653  0.1743 -0.7396  1.3914
   24DOPC   H4X 3270   1.181   3.405   4.639  0.4663  1.0366  0.6182
   24DOPC   H4Y 3271   1.306   3.283   4.638 -0.1011 -0.5445 -0.5014
   24DOPC   C35 3272   1.362   3.473   4.547  0.1817 -1.0380 -0.0528
   24DOPC   H5X 3273   1.472   3.468   4.564  0.0166 -1.8408  0.9227
   24DOPC   H5Y 3274   1.320   3.575   4.554 -0.8313 -1.5252  1.4881
   24DOPC   C36 3275   1.335   3.421   4.398 -0.0847 -0.3182 -0.5246
   24DOPC   H6X 3276   1.401   3.482   4.332 -0.3620 -0.6931 -1.1505
   24DOPC   H6Y 3277   1.365   3.315   4.384 -0.2343 -0.2140 -1.7365
   24DOPC   C37 3278   1.185   3.421   4.360 -0.1444 -0.0581 -0.0490
   24DOPC   H7X 3279   1.133   3.360   4.436 -0.0332 -0.8834 -0.6282
   24DOPC   H7Y 3280   1.156   3.528   4.371  0.7008  0.1817 -0.0494
   24DOPC   C38 3281   1.156   3.361   4.219 -0.2915 -0.4521  0.3051
   24DOPC   H8X 3282   1.048   3.341   4.202 -0.0793  0.3419 -2.5537
   24DOPC   H8Y 3283   1.198   3.258   4.218 -2.7233 -1.5484  1.7582
   24DOPC   C39 3284   1.226   3.433   4.110  0.0003 -0.2200 -0.4533
   24DOPC   H9X 3285   1.303   3.501   4.148  0.9449 -1.6830  0.3686
   24DOPC  C310 3286   1.227   3.416   3.980 -0.0557 -0.3868  0.0912
   24DOPC  H10X 3287   1.298   3.470   3.916  1.1755  0.2423  1.9308
   24DOPC  C311 3288   1.139   3.315   3.913 -0.0020 -0.3934 -0.3914
   24DOPC  H11X 3289   1.072   3.362   3.838 -2.3960 -1.7002  0.8205
   24DOPC  H11Y 3290   1.069   3.278   3.991 -0.2439 -0.9310 -0.8634
   24DOPC  C312 3291   1.215   3.199   3.838 -0.4390  0.0210 -0.1844
   24DOPC  H12X 3292   1.135   3.130   3.805 -1.1883  1.2986 -1.1165
   24DOPC  H12Y 3293   1.286   3.149   3.907  1.0962 -0.2253 -1.8848
   24DOPC  C313 3294   1.305   3.246   3.716 -0.1825 -0.2558  0.0521
   24DOPC  H13X 3295   1.392   3.297   3.761 -0.8440 -0.5130  1.6773
   24DOPC  H13Y 3296   1.347   3.157   3.663 -2.4683 -1.4465  0.0999
   24DOPC  C314 3297   1.249   3.349   3.612  0.3679 -0.0960 -0.4897
   24DOPC  H14X 3298   1.152   3.319   3.565 -0.3490  1.4346 -0.0442
   24DOPC  H14Y 3299   1.220   3.446   3.658 -2.0233 -0.5746 -0.8190
   24DOPC  C315 3300   1.351   3.376   3.498 -0.6734  0.2606  0.2276
   24DOPC  H15X 3301   1.380   3.273   3.469  0.3007  0.4870  0.3339
   24DOPC  H15Y 3302   1.445   3.423   3.535 -0.7889  1.2523 -0.6750
   24DOPC  C316 3303   1.293   3.462   3.385  0.2118 -0.4262 -0.6226
   24DOPC  H16X 3304   1.191   3.435   3.349 -0.2997  0.1089  0.3543
   24DOPC  H16Y 3305   1.274   3.563   3.429  2.1422 -0.1108 -0.4515
   24DOPC  C317 3306   1.385   3.476   3.268  0.0751  0.2690 -0.2913
   24DOPC  H17X 3307   1.457   3.391   3.269  1.7791  1.5853  2.2991
   24DOPC  H17Y 3308   1.325   3.452   3.178 -0.0924  0.1560 -0.1485
   24DOPC  C318 3309   1.455   3.608   3.251 -0.0984 -0.3582  0.2416
   24DOPC  H18X 3310   1.527   3.599   3.166 -0.0005 -0.2378  0.3121
   24DOPC  H18Y 3311   1.392   3.698   3.234 -0.5600 -0.6273  0.5188
   24DOPC  H18Z 3312   1.524   3.631   3.335 -0.1869 -0.7864  0.4342
   25DOPC     N 3313   7.847   9.919   6.099  0.0006  0.6986 -0.0537
   25DOPC   C12 3314   7.900   9.976   5.972  0.4064  0.5169 -0.4663
   25DOPC  H12A 3315   8.007   9.967   5.985  0.1130 -1.1177  1.2354
   25DOPC  H12B 3316   7.887  10.082   5.984 -1.1225  0.6072 -2.4468
   25DOPC   C13 3317   7.701   9.942   6.117  0.3663 -0.0900  0.0256
   25DOPC  H13A 3318   7.669  10.041   6.147 -3.3487 -1.4522  1.0667
   25DOPC  H13B 3319   7.648   9.910   6.029  2.5513  0.4879 -1.5932
   25DOPC  H13C 3320   7.659   9.879   6.194  0.3227 -0.5603 -0.3792
   25DOPC   C14 3321   7.923   9.989   6.207  0.9450  0.1373  0.3419
   25DOPC  H14A 3322   7.884   9.956   6.302  2.0233 -0.2715  0.6554
   25DOPC  H14B 3323   8.029   9.968   6.205  0.8494 -0.3848 -1.2363
   25DOPC  H14C 3324   7.912  10.093   6.179  1.5282 -0.2705 -1.5959
   25DOPC   C15 3325   7.862   9.772   6.102 -0.4865  0.1766  0.2104
   25DOPC  H15A 3326   7.967   9.747   6.106 -0.1617  1.3571 -0.4441
   25DOPC  H15B 3327   7.824   9.738   6.006 -1.6180  1.3669  0.2064
   25DOPC  H15C 3328   7.811   9.734   6.189  0.3221  2.3964  1.7562
   25DOPC   C11 3329   7.849   9.919   5.841 -0.1104  0.6918  0.4731
   25DOPC  H11A 3330   7.740   9.904   5.849 -0.3039  2.3800  1.6405
   25DOPC  H11B 3331   7.862   9.992   5.758 -0.1582  0.6242  0.4055
   25DOPC     P 3332   8.054   9.776   5.790  0.0062 -0.3485  0.1763
   25DOPC   O13 3333   8.083   9.630   5.801 -0.3969  0.2272  0.1015
   25DOPC   O14 3334   8.141   9.866   5.866 -0.1040 -0.0452  0.1400
   25DOPC   O12 3335   7.903   9.788   5.816 -0.2191 -0.4798 -0.7246
   25DOPC   O11 3336   8.064   9.821   5.639 -0.4470 -0.3265 -0.0899
   25DOPC    C1 3337   8.012   9.774   5.521 -0.2980  0.7607 -0.5963
   25DOPC    HA 3338   8.013   9.852   5.442  1.1044 -0.5160 -1.8894
   25DOPC    HB 3339   7.913   9.732   5.548  0.5164 -0.9922 -0.1955
   25DOPC    C2 3340   8.102   9.658   5.465 -0.1311 -0.1013  0.4016
   25DOPC    HS 3341   8.153   9.621   5.556  1.5579  2.1844  0.4885
   25DOPC   O21 3342   8.191   9.708   5.362 -0.2465 -0.6855  0.1040
   25DOPC   C21 3343   8.293   9.629   5.329 -0.2512  0.2028 -0.0535
   25DOPC   O22 3344   8.311   9.520   5.376 -0.1847 -0.1645  0.6078
   25DOPC   C22 3345   8.372   9.693   5.214  1.1223  0.2284 -0.0798
   25DOPC   H2R 3346   8.465   9.737   5.256  0.8247  0.6864  0.0977
   25DOPC   H2S 3347   8.306   9.765   5.161 -1.3061 -1.9228 -0.1488
   25DOPC    C3 3348   8.013   9.538   5.414 -0.1113  0.3620  0.2834
   25DOPC    HX 3349   7.943   9.513   5.496  1.0309 -0.3859  1.0617
   25DOPC    HY 3350   8.073   9.444   5.418 -1.8313 -0.7590  1.0508
   25DOPC   O31 3351   7.959   9.558   5.285 -0.5594  0.2850  0.5051
   25DOPC   C31 3352   7.833   9.520   5.251 -0.2831  0.6001  1.3865
   25DOPC   O32 3353   7.762   9.457   5.326  0.4167  0.3014  0.2211
   25DOPC   C32 3354   7.793   9.569   5.110 -0.6010 -0.0812  0.7881
   25DOPC   H2X 3355   7.830   9.505   5.027 -0.9942 -1.9832  2.0275
   25DOPC   H2Y 3356   7.682   9.579   5.113 -0.5107  0.9879  1.2685
   25DOPC   C23 3357   8.426   9.584   5.116  0.2122  0.2381  0.1084
   25DOPC   H3R 3358   8.479   9.497   5.158 -1.4680 -0.3168  1.1943
   25DOPC   H3S 3359   8.490   9.643   5.047  0.3562 -0.5320 -0.4262
   25DOPC   C24 3360   8.312   9.527   5.023  0.1660 -0.2907 -0.4342
   25DOPC   H4R 3361   8.258   9.618   4.989  0.3321 -0.3047 -0.7338
   25DOPC   H4S 3362   8.239   9.472   5.086  1.0432 -0.0225  0.8741
   25DOPC   C25 3363   8.367   9.444   4.907 -0.0760  0.3672 -0.2858
   25DOPC   H5R 3364   8.400   9.351   4.957 -0.4285  1.2944  1.7788
   25DOPC   H5S 3365   8.460   9.498   4.876 -0.1526  0.3721 -0.5109
   25DOPC   C26 3366   8.279   9.442   4.779  0.6498  0.2120  0.0328
   25DOPC   H6R 3367   8.256   9.545   4.746 -0.8153  0.1677  0.8005
   25DOPC   H6S 3368   8.181   9.399   4.813  0.6332 -1.4596 -1.9218
   25DOPC   C27 3369   8.333   9.364   4.663 -0.0516  0.4942  0.3042
   25DOPC   H7R 3370   8.351   9.262   4.703 -1.1262  0.9427  2.0268
   25DOPC   H7S 3371   8.421   9.420   4.625 -0.3380  1.1479  0.5919
   25DOPC   C28 3372   8.230   9.344   4.547 -0.2533 -0.1708  0.2337
   25DOPC   H8R 3373   8.209   9.440   4.495  1.3600 -0.9524 -2.0625
   25DOPC   H8S 3374   8.131   9.308   4.580 -0.9636  0.8499 -0.7081
   25DOPC   C29 3375   8.288   9.259   4.433  0.6313  0.8930 -0.5302
   25DOPC   H9R 3376   8.355   9.319   4.370  2.7195  0.9237  1.5792
   25DOPC  C210 3377   8.249   9.129   4.408 -0.4251 -0.7176  0.4933
   25DOPC  H10R 3378   8.275   9.085   4.311 -3.4039  0.2494 -0.8537
   25DOPC  C211 3379   8.151   9.043   4.490  0.3279 -0.1719  0.0728
   25DOPC  H11R 3380   8.136   9.094   4.588 -1.2120 -1.1744  0.3947
   25DOPC  H11S 3381   8.199   8.947   4.518  3.2710  1.2702  0.3328
   25DOPC  C212 3382   8.015   9.023   4.424 -0.1645  0.4424  0.3592
   25DOPC  H12R 3383   8.022   8.969   4.327 -1.5796 -0.4430  0.7253
   25DOPC  H12S 3384   7.957   9.118   4.416  0.6094  1.0187  1.3849
   25DOPC  C213 3385   7.928   8.926   4.511 -0.0574 -0.5322 -0.0761
   25DOPC  H13R 3386   7.884   8.991   4.591 -0.2478 -0.4028 -0.2849
   25DOPC  H13S 3387   8.002   8.856   4.554  1.5878  0.5981 -0.9751
   25DOPC  C214 3388   7.822   8.858   4.423 -0.0029  0.4354 -0.2115
   25DOPC  H14R 3389   7.759   8.790   4.484  0.9127  0.1055  0.3940
   25DOPC  H14S 3390   7.876   8.796   4.349 -1.2454 -0.4682 -0.3878
   25DOPC  C215 3391   7.730   8.958   4.361  0.3238  0.3511  0.5284
   25DOPC  H15R 3392   7.775   9.036   4.297  1.1333  0.2166  0.9265
   25DOPC  H15S 3393   7.669   9.017   4.433  1.4107  1.5584  0.4971
   25DOPC  C216 3394   7.636   8.882   4.263  0.1759  0.0678 -0.5461
   25DOPC  H16R 3395   7.624   8.783   4.312  1.3670  0.1483 -0.0459
   25DOPC  H16S 3396   7.696   8.855   4.173 -0.0444  0.7586 -0.9042
   25DOPC  C217 3397   7.502   8.959   4.240 -1.0740 -0.0457 -0.6488
   25DOPC  H17R 3398   7.524   9.062   4.202 -1.1764 -0.3111 -1.4608
   25DOPC  H17S 3399   7.461   8.968   4.343 -0.2322 -3.1724  0.0405
   25DOPC  C218 3400   7.395   8.891   4.155  0.5727  0.4449 -0.4012
   25DOPC  H18R 3401   7.375   8.789   4.193  2.0782  0.2203 -0.1479
   25DOPC  H18S 3402   7.422   8.875   4.049  1.6220 -0.2305 -0.0512
   25DOPC  H18T 3403   7.296   8.941   4.158 -1.5018 -3.2836 -0.5132
   25DOPC   C33 3404   7.853   9.713   5.076 -0.6892  0.9711 -1.1705
   25DOPC   H3X 3405   7.960   9.692   5.054 -0.5050 -0.0991  0.5858
   25DOPC   H3Y 3406   7.851   9.775   5.169  0.4135  0.6907 -0.9418
   25DOPC   C34 3407   7.778   9.794   4.969  1.1943  0.2856 -0.5720
   25DOPC   H4X 3408   7.847   9.876   4.940  1.8230 -0.1196 -0.2396
   25DOPC   H4Y 3409   7.679   9.826   5.007 -0.3441 -3.6816 -0.7839
   25DOPC   C35 3410   7.752   9.722   4.833 -0.2128 -0.2972 -0.0124
   25DOPC   H5X 3411   7.661   9.660   4.843  0.7269 -1.5210  1.3356
   25DOPC   H5Y 3412   7.834   9.657   4.797 -0.0043 -0.6107  1.0078
   25DOPC   C36 3413   7.712   9.825   4.721 -0.2121  0.1019  0.0918
   25DOPC   H6X 3414   7.626   9.880   4.764 -1.7091 -1.7082 -0.4617
   25DOPC   H6Y 3415   7.797   9.896   4.710 -0.4571  0.4966  0.7396
   25DOPC   C37 3416   7.673   9.762   4.590  0.4899 -0.5505  0.0082
   25DOPC   H7X 3417   7.759   9.710   4.543  0.4860 -0.5650  0.0173
   25DOPC   H7Y 3418   7.591   9.690   4.611  0.8223 -0.2469  2.8037
   25DOPC   C38 3419   7.614   9.850   4.483  0.5445 -0.4483  0.3726
   25DOPC   H8X 3420   7.596   9.783   4.396  0.5590 -2.7110  2.0399
   25DOPC   H8Y 3421   7.682   9.928   4.440 -1.2492  0.7273 -0.4370
   25DOPC   C39 3422   7.489   9.923   4.524  0.4280 -0.4375  0.0348
   25DOPC   H9X 3423   7.503  10.032   4.536 -1.2970  0.1751 -2.6553
   25DOPC  C310 3424   7.366   9.870   4.527 -0.5004  0.5373 -0.0319
   25DOPC  H10X 3425   7.284   9.939   4.554  0.0655  0.1855  2.8792
   25DOPC  C311 3426   7.327   9.724   4.509 -0.3327  0.0479  0.1463
   25DOPC  H11X 3427   7.414   9.654   4.511  0.2068  0.7128  1.3289
   25DOPC  H11Y 3428   7.275   9.701   4.413  1.2072 -0.4837 -0.5910
   25DOPC  C312 3429   7.239   9.685   4.624 -0.1848 -0.0616 -0.2313
   25DOPC  H12X 3430   7.201   9.583   4.602 -2.0604  0.7842 -1.1829
   25DOPC  H12Y 3431   7.154   9.756   4.635  0.3299  0.4488  0.5117
   25DOPC  C313 3432   7.317   9.686   4.761  0.4918  1.0796  0.2564
   25DOPC  H13X 3433   7.395   9.608   4.745  0.4533  1.3253 -1.3045
   25DOPC  H13Y 3434   7.376   9.778   4.778  0.3641  1.3152 -0.5201
   25DOPC  C314 3435   7.238   9.651   4.894 -0.2627 -0.1657  1.1420
   25DOPC  H14X 3436   7.182   9.742   4.923  0.9809  0.9705  0.1356
   25DOPC  H14Y 3437   7.167   9.572   4.863  1.2118 -0.0679 -3.2291
   25DOPC  C315 3438   7.329   9.591   5.004 -0.4325  0.2016  0.7359
   25DOPC  H15X 3439   7.396   9.673   5.038 -1.6491  1.2577  0.6403
   25DOPC  H15Y 3440   7.388   9.506   4.964  1.6335  1.0446  1.8442
   25DOPC  C316 3441   7.257   9.547   5.129 -0.2017 -0.0883  0.3604
   25DOPC  H16X 3442   7.190   9.624   5.173 -1.8874 -1.0662 -0.3931
   25DOPC  H16Y 3443   7.205   9.461   5.081 -1.7472  0.7408  0.4652
   25DOPC  C317 3444   7.348   9.489   5.237 -0.0754  0.6269 -0.5998
   25DOPC  H17X 3445   7.281   9.449   5.317 -0.4363  2.3133 -0.0222
   25DOPC  H17Y 3446   7.412   9.410   5.192  0.8593  1.2972 -0.4785
   25DOPC  C318 3447   7.439   9.587   5.308  0.0827 -0.4379  0.6350
   25DOPC  H18X 3448   7.517   9.634   5.244 -0.1835 -0.6108  0.1834
   25DOPC  H18Y 3449   7.378   9.670   5.348 -3.1389 -2.5368  0.4132
   25DOPC  H18Z 3450   7.484   9.532   5.394 -0.3648 -1.3206  0.3187
   26DOPC     N 3451   4.170   9.382   6.285  0.6564  0.0803  0.4272
   26DOPC   C12 3452   4.316   9.354   6.309 -0.2470  0.0710  0.0229
   26DOPC  H12A 3453   4.337   9.249   6.291 -0.3036 -0.2696  1.7469
   26DOPC  H12B 3454   4.328   9.367   6.416 -0.2231  2.2373 -0.1967
   26DOPC   C13 3455   4.122   9.509   6.338  0.8505  0.4746  0.3629
   26DOPC  H13A 3456   4.022   9.543   6.313  1.0139  2.2716  1.9143
   26DOPC  H13B 3457   4.122   9.520   6.446 -1.3650  0.3392  0.4301
   26DOPC  H13C 3458   4.177   9.591   6.293 -0.9371  1.3870 -0.2555
   26DOPC   C14 3459   4.083   9.275   6.343 -0.2792  0.2308 -0.3373
   26DOPC  H14A 3460   3.983   9.312   6.328 -0.3781 -0.1175 -0.5467
   26DOPC  H14B 3461   4.099   9.173   6.313 -0.7633 -0.4516  1.5882
   26DOPC  H14C 3462   4.096   9.267   6.450 -1.1507 -0.6278 -0.2797
   26DOPC   C15 3463   4.150   9.367   6.140 -0.4545 -0.3973  0.0897
   26DOPC  H15A 3464   4.225   9.426   6.090  1.9419 -2.5733  0.8658
   26DOPC  H15B 3465   4.056   9.409   6.107 -0.5598 -0.0022  0.8832
   26DOPC  H15C 3466   4.161   9.267   6.100 -1.1178 -0.2179 -0.5665
   26DOPC   C11 3467   4.433   9.422   6.226 -0.0950 -0.0228  0.0290
   26DOPC  H11A 3468   4.422   9.531   6.240  3.7927  0.3613  1.4028
   26DOPC  H11B 3469   4.527   9.397   6.280  0.1082 -0.4477 -0.5039
   26DOPC     P 3470   4.459   9.234   6.044  0.0412  0.0664  0.5394
   26DOPC   O13 3471   4.379   9.204   5.919 -0.0153 -0.1225 -0.4642
   26DOPC   O14 3472   4.435   9.146   6.165 -0.4158 -0.1922 -0.4510
   26DOPC   O12 3473   4.427   9.387   6.084 -0.1519 -0.4224 -0.2428
   26DOPC   O11 3474   4.615   9.235   6.003  0.7488 -0.3394 -1.1337
   26DOPC    C1 3475   4.696   9.352   5.981 -0.2007 -0.8166  0.0194
   26DOPC    HA 3476   4.794   9.307   5.954 -0.1385 -0.6002 -0.1181
   26DOPC    HB 3477   4.711   9.409   6.075 -2.2129 -1.0690  0.5447
   26DOPC    C2 3478   4.650   9.444   5.863 -0.7675 -0.9308  0.3548
   26DOPC    HS 3479   4.562   9.499   5.904 -0.7145 -0.9386  0.4802
   26DOPC   O21 3480   4.628   9.358   5.748  0.2402 -0.0528  0.0151
   26DOPC   C21 3481   4.512   9.377   5.699  0.7421  0.5753  0.1308
   26DOPC   O22 3482   4.432   9.466   5.724  0.1218 -0.0322  0.3670
   26DOPC   C22 3483   4.497   9.267   5.584  0.0953  0.5332  0.2322
   26DOPC   H2R 3484   4.441   9.183   5.629 -1.1983  2.3980  2.2828
   26DOPC   H2S 3485   4.592   9.211   5.569  0.3952  0.6849  1.4900
   26DOPC    C3 3486   4.764   9.550   5.824 -0.1101 -0.0281 -0.3376
   26DOPC    HX 3487   4.859   9.494   5.816  1.8179  1.9698  4.5538
   26DOPC    HY 3488   4.783   9.618   5.910 -0.4534 -1.6641  1.1063
   26DOPC   O31 3489   4.737   9.623   5.700  0.1612  0.1360  0.3376
   26DOPC   C31 3490   4.821   9.707   5.660  0.3177 -0.9896  0.6029
   26DOPC   O32 3491   4.922   9.746   5.716 -0.3955 -0.1205  0.0058
   26DOPC   C32 3492   4.769   9.776   5.529  0.5997  0.1349  0.1740
   26DOPC   H2X 3493   4.720   9.696   5.469 -1.2852  2.6557 -1.9209
   26DOPC   H2Y 3494   4.686   9.847   5.549 -0.3603 -1.0839  0.6656
   26DOPC   C23 3495   4.437   9.333   5.461  0.1760 -0.3097 -0.0917
   26DOPC   H3R 3496   4.330   9.356   5.476 -0.0256 -2.1919  1.7206
   26DOPC   H3S 3497   4.430   9.252   5.385 -3.0676 -1.2865  1.1115
   26DOPC   C24 3498   4.522   9.447   5.408  0.3248 -0.1271 -0.0917
   26DOPC   H4R 3499   4.626   9.415   5.387 -0.2466 -2.0729 -0.1637
   26DOPC   H4S 3500   4.536   9.519   5.491  2.2652  0.2206 -0.6745
   26DOPC   C25 3501   4.463   9.518   5.285  0.2317 -0.1886  0.3085
   26DOPC   H5R 3502   4.356   9.546   5.297  0.5885  0.7147  1.5497
   26DOPC   H5S 3503   4.472   9.458   5.192  2.6213  0.0029  0.3568
   26DOPC   C26 3504   4.540   9.643   5.273 -0.1622 -0.1304  0.4907
   26DOPC   H6R 3505   4.649   9.621   5.273 -0.5489 -2.1797  0.5073
   26DOPC   H6S 3506   4.517   9.707   5.361 -0.0379 -0.1709  0.5540
   26DOPC   C27 3507   4.525   9.731   5.147  0.4554 -0.3396 -0.1182
   26DOPC   H7R 3508   4.588   9.822   5.155 -2.3144  1.8408 -1.6205
   26DOPC   H7S 3509   4.425   9.776   5.159  1.4485  1.5888  1.6863
   26DOPC   C28 3510   4.548   9.671   5.013  0.1093 -0.4609  0.2989
   26DOPC   H8R 3511   4.472   9.591   5.003  0.8975 -0.9126 -3.2314
   26DOPC   H8S 3512   4.653   9.635   5.016  0.1797 -0.2599  3.0187
   26DOPC   C29 3513   4.527   9.781   4.905 -0.0386  0.1730 -0.5898
   26DOPC   H9R 3514   4.442   9.848   4.927  0.7322  1.2643 -0.8398
   26DOPC  C210 3515   4.604   9.791   4.803 -0.0999  0.7420  1.1615
   26DOPC  H10R 3516   4.587   9.872   4.731  1.1713 -0.3341 -0.4144
   26DOPC  C211 3517   4.725   9.703   4.765  0.0122 -0.1074 -0.1611
   26DOPC  H11R 3518   4.710   9.595   4.783  2.1588 -0.3957  0.2083
   26DOPC  H11S 3519   4.811   9.731   4.829 -0.5100 -1.8137  1.3777
   26DOPC  C212 3520   4.758   9.718   4.619  0.0820 -0.3700  0.1459
   26DOPC  H12R 3521   4.825   9.631   4.604  0.9454  0.0437  1.4569
   26DOPC  H12S 3522   4.820   9.808   4.601 -1.2482  0.2051 -1.8822
   26DOPC  C213 3523   4.650   9.719   4.509  0.0586  0.0342  0.1934
   26DOPC  H13R 3524   4.565   9.778   4.549  0.9927  1.5416  0.0193
   26DOPC  H13S 3525   4.617   9.613   4.505 -0.4345  0.2225 -1.3917
   26DOPC  C214 3526   4.698   9.782   4.377 -0.2546 -0.0671  0.5070
   26DOPC  H14R 3527   4.783   9.719   4.341  0.0146 -0.0237  1.0527
   26DOPC  H14S 3528   4.736   9.884   4.397 -1.6061  0.6193 -0.3297
   26DOPC  C215 3529   4.601   9.797   4.255  0.2064  0.3449 -0.4556
   26DOPC  H15R 3530   4.534   9.882   4.279 -0.3349 -0.2667  0.2255
   26DOPC  H15S 3531   4.546   9.702   4.246 -0.7404  0.8089  0.3127
   26DOPC  C216 3532   4.675   9.819   4.124 -0.0538 -0.0707 -0.4308
   26DOPC  H16R 3533   4.734   9.727   4.104 -1.0319 -0.5112 -1.3957
   26DOPC  H16S 3534   4.741   9.907   4.136 -0.8838  0.4485  0.5077
   26DOPC  C217 3535   4.571   9.846   4.014 -0.3724 -0.1646  0.5522
   26DOPC  H17R 3536   4.514   9.934   4.049  0.4692  1.0579 -0.9950
   26DOPC  H17S 3537   4.502   9.760   3.999 -0.3505 -0.0834 -0.0805
   26DOPC  C218 3538   4.649   9.858   3.883  0.4460  0.3485  0.1440
   26DOPC  H18R 3539   4.581   9.868   3.796 -0.0390  0.3147  0.5143
   26DOPC  H18S 3540   4.705   9.764   3.863  0.6891  0.8362 -1.5847
   26DOPC  H18T 3541   4.720   9.943   3.880  0.3421  0.4638  0.7123
   26DOPC   C33 3542   4.891   9.834   5.448  0.0435  0.5534  0.4202
   26DOPC   H3X 3543   4.972   9.761   5.427 -0.0326  0.6970 -0.4010
   26DOPC   H3Y 3544   4.940   9.915   5.506  2.0694  0.4296 -1.0371
   26DOPC   C34 3545   4.839   9.896   5.315 -0.3227 -0.3734  0.6357
   26DOPC   H4X 3546   4.743   9.947   5.335 -1.3402 -1.0436 -2.1641
   26DOPC   H4Y 3547   4.807   9.814   5.248  1.0552  0.5258 -1.2149
   26DOPC   C35 3548   4.948   9.988   5.253 -0.2150  0.3793 -0.0848
   26DOPC   H5X 3549   5.044   9.936   5.230 -0.6444 -0.2176 -0.5792
   26DOPC   H5Y 3550   4.976  10.077   5.312 -0.2723  0.4065 -0.0985
   26DOPC   C36 3551   4.896  10.037   5.113 -0.0593 -0.1835 -0.0086
   26DOPC   H6X 3552   4.872   9.943   5.058 -0.1144 -0.1238 -0.0851
   26DOPC   H6Y 3553   4.796  10.079   5.136 -0.1332  0.1391 -0.8790
   26DOPC   C37 3554   4.984  10.128   5.030  0.2407 -0.5692 -0.4381
   26DOPC   H7X 3555   4.919  10.171   4.950 -1.7441  0.2124  1.5036
   26DOPC   H7Y 3556   5.010  10.217   5.091  1.6082  0.4878 -2.4603
   26DOPC   C38 3557   5.104  10.061   4.966  0.0968  0.4497  0.6355
   26DOPC   H8X 3558   5.175  10.018   5.040  1.2097  0.5178 -0.3601
   26DOPC   H8Y 3559   5.162  10.138   4.911 -1.6699 -0.6093 -3.0296
   26DOPC   C39 3560   5.057   9.960   4.865  0.3657  0.1963 -1.1380
   26DOPC   H9X 3561   5.033   9.860   4.904 -0.2037  1.4208  1.9355
   26DOPC  C310 3562   5.013   9.997   4.744  0.2638 -0.2661 -0.1833
   26DOPC  H10X 3563   4.980   9.920   4.672  1.3447 -0.9056 -0.0156
   26DOPC  C311 3564   5.011  10.135   4.678 -0.0923 -0.2591 -0.1194
   26DOPC  H11X 3565   5.050  10.117   4.575  0.7499  0.7609  0.0065
   26DOPC  H11Y 3566   5.068  10.205   4.742 -1.4635 -1.3291  2.3969
   26DOPC  C312 3567   4.873  10.211   4.662  0.4804 -0.0935 -0.6840
   26DOPC  H12X 3568   4.897  10.319   4.653  1.1302 -0.2232 -0.5706
   26DOPC  H12Y 3569   4.816  10.198   4.756  0.6248 -1.5753 -0.7709
   26DOPC  C313 3570   4.788  10.162   4.541 -0.5927  0.5468 -0.5772
   26DOPC  H13X 3571   4.854  10.181   4.453 -0.0165 -2.3544 -0.8615
   26DOPC  H13Y 3572   4.775  10.052   4.548  0.9731  0.3682 -0.0663
   26DOPC  C314 3573   4.668  10.244   4.509  0.8916 -1.2403 -0.7990
   26DOPC  H14X 3574   4.589  10.249   4.587  0.0792 -0.6055 -1.6449
   26DOPC  H14Y 3575   4.705  10.348   4.502  0.3250 -0.8701  1.1091
   26DOPC  C315 3576   4.588  10.210   4.383  0.1117  0.3136  0.1866
   26DOPC  H15X 3577   4.527  10.120   4.402  1.0928 -0.2395  0.8354
   26DOPC  H15Y 3578   4.658  10.194   4.298 -0.3906  3.2247 -0.8969
   26DOPC  C316 3579   4.507  10.339   4.333  0.2470  1.1611 -0.1318
   26DOPC  H16X 3580   4.449  10.374   4.421 -0.4897  1.8146 -0.8578
   26DOPC  H16Y 3581   4.588  10.411   4.312  0.7226  0.2867 -1.4363
   26DOPC  C317 3582   4.412  10.309   4.219  0.2338  0.1419  0.5785
   26DOPC  H17X 3583   4.363  10.210   4.236  0.1710  0.1968  0.7204
   26DOPC  H17Y 3584   4.345  10.395   4.200 -0.2507 -0.3109  0.1984
   26DOPC  C318 3585   4.482  10.288   4.087  0.4373  0.1405  0.4824
   26DOPC  H18X 3586   4.422  10.231   4.013  1.8219 -1.0132  0.2104
   26DOPC  H18Y 3587   4.510  10.389   4.050  0.1724  0.3553  0.8539
   26DOPC  H18Z 3588   4.571  10.226   4.110 -0.8751 -1.2960  1.9052
   27DOPC     N 3589   6.091   7.656   6.127  0.3645 -0.5753  0.3124
   27DOPC   C12 3590   6.220   7.643   6.048  1.1087 -0.5867 -0.0223
   27DOPC  H12A 3591   6.228   7.705   5.960  0.9684 -1.4533 -0.6637
   27DOPC  H12B 3592   6.229   7.543   6.007 -0.1821 -0.1392 -1.4825
   27DOPC   C13 3593   6.056   7.801   6.138  0.5999  0.1073  0.2746
   27DOPC  H13A 3594   6.142   7.850   6.179  2.1965 -1.2970 -1.2433
   27DOPC  H13B 3595   6.045   7.840   6.038 -2.2685 -2.8195 -0.7413
   27DOPC  H13C 3596   5.968   7.819   6.199  1.0149 -0.0503  0.9298
   27DOPC   C14 3597   6.104   7.590   6.258 -0.8166  0.0092  0.0491
   27DOPC  H14A 3598   6.009   7.602   6.307 -1.0681  0.0557 -0.4375
   27DOPC  H14B 3599   6.135   7.487   6.249  2.9380  1.0267 -0.4069
   27DOPC  H14C 3600   6.173   7.645   6.320 -0.1011  0.5427 -1.1703
   27DOPC   C15 3601   5.977   7.593   6.043 -0.0145 -0.2018 -0.1638
   27DOPC  H15A 3602   5.973   7.635   5.943  0.7791  0.5529  0.1107
   27DOPC  H15B 3603   5.886   7.627   6.091  0.2931  1.3163 -0.6065
   27DOPC  H15C 3604   5.976   7.485   6.048 -0.4835 -0.1513  1.4759
   27DOPC   C11 3605   6.353   7.662   6.121 -0.6572  0.0258  0.1572
   27DOPC  H11A 3606   6.383   7.578   6.186  3.2268  1.2726  0.2273
   27DOPC  H11B 3607   6.431   7.660   6.042  0.1875  0.6699  0.9575
   27DOPC     P 3608   6.393   7.920   6.127  0.0110 -0.3185  0.1764
   27DOPC   O13 3609   6.542   7.940   6.119 -0.0562 -0.1210  0.4035
   27DOPC   O14 3610   6.315   8.027   6.193 -0.0689  0.0657  0.8074
   27DOPC   O12 3611   6.354   7.780   6.199 -0.2172 -0.4291  0.2310
   27DOPC   O11 3612   6.336   7.895   5.977  0.3913 -0.2861  0.7202
   27DOPC    C1 3613   6.298   8.002   5.894 -0.9176  0.1135  1.0056
   27DOPC    HA 3614   6.246   8.087   5.944 -0.9818 -0.4057  1.8427
   27DOPC    HB 3615   6.225   7.958   5.823 -0.4072  1.2345 -0.2569
   27DOPC    C2 3616   6.413   8.056   5.814 -0.4260 -0.0184 -0.0744
   27DOPC    HS 3617   6.481   7.974   5.784 -0.5091 -0.3405  0.5941
   27DOPC   O21 3618   6.477   8.153   5.903  0.3900  0.0835 -0.0141
   27DOPC   C21 3619   6.607   8.164   5.895 -0.2583 -0.2660 -0.4778
   27DOPC   O22 3620   6.680   8.097   5.830  0.0756  0.0346 -0.1559
   27DOPC   C22 3621   6.655   8.270   5.999  0.8571 -0.1327  0.4080
   27DOPC   H2R 3622   6.757   8.237   6.028  1.6867  2.1246  0.3087
   27DOPC   H2S 3623   6.585   8.265   6.084  2.2606  0.0048  1.6144
   27DOPC    C3 3624   6.362   8.139   5.696  0.3290  0.1598  0.2104
   27DOPC    HX 3625   6.311   8.226   5.743  0.9893  0.3552  0.5847
   27DOPC    HY 3626   6.287   8.089   5.632  1.5516 -0.8677 -0.4768
   27DOPC   O31 3627   6.474   8.184   5.610  0.1698 -0.2944  0.0410
   27DOPC   C31 3628   6.540   8.100   5.539 -0.0283 -0.0197  0.9967
   27DOPC   O32 3629   6.497   7.991   5.507 -0.3829  0.6863 -0.4506
   27DOPC   C32 3630   6.676   8.157   5.497 -0.0132  0.7160  0.7067
   27DOPC   H2X 3631   6.683   8.266   5.477  3.2378  0.0057 -3.6451
   27DOPC   H2Y 3632   6.738   8.140   5.588  2.4804  0.7884 -0.8756
   27DOPC   C23 3633   6.652   8.417   5.950 -0.5272 -0.6027  0.6056
   27DOPC   H3R 3634   6.665   8.481   6.040 -0.0024 -1.3354  1.0612
   27DOPC   H3S 3635   6.552   8.442   5.908 -0.0510  3.4562  1.4391
   27DOPC   C24 3636   6.763   8.443   5.850  0.9685  0.1366 -0.2167
   27DOPC   H4R 3637   6.751   8.370   5.767 -2.6780  0.8721 -0.5077
   27DOPC   H4S 3638   6.862   8.420   5.894 -0.3750  0.7411  3.4477
   27DOPC   C25 3639   6.760   8.586   5.784 -0.0304  0.4290 -0.8409
   27DOPC   H5R 3640   6.773   8.664   5.862  0.2417 -1.0347  0.6294
   27DOPC   H5S 3641   6.658   8.596   5.740 -0.7224 -0.7717  0.4155
   27DOPC   C26 3642   6.874   8.581   5.673  0.5273 -0.3465 -0.5455
   27DOPC   H6R 3643   6.878   8.483   5.622  1.0422 -1.1206  0.9242
   27DOPC   H6S 3644   6.973   8.600   5.720 -0.3801  2.9956  0.3365
   27DOPC   C27 3645   6.849   8.695   5.570 -0.3508 -0.4663  0.1564
   27DOPC   H7R 3646   6.942   8.738   5.527 -0.3692 -0.0648  0.5094
   27DOPC   H7S 3647   6.794   8.782   5.613  0.6303  0.8799 -1.1954
   27DOPC   C28 3648   6.779   8.636   5.444  0.1097  0.5675 -0.7472
   27DOPC   H8R 3649   6.681   8.588   5.460 -0.4131  1.6046 -0.7592
   27DOPC   H8S 3650   6.842   8.549   5.415 -0.9999 -0.9845  1.2969
   27DOPC   C29 3651   6.793   8.729   5.329  0.6650  0.5507  0.8221
   27DOPC   H9R 3652   6.880   8.706   5.265 -1.1986  2.0380 -2.5006
   27DOPC  C210 3653   6.711   8.826   5.294 -0.8724  0.0222  0.4393
   27DOPC  H10R 3654   6.734   8.881   5.201  0.2441  0.9083  1.2109
   27DOPC  C211 3655   6.588   8.866   5.365  0.3620  0.6542 -0.1119
   27DOPC  H11R 3656   6.592   8.975   5.388  0.5837  0.8018 -0.8257
   27DOPC  H11S 3657   6.578   8.825   5.468  0.4956  1.8920  0.4159
   27DOPC  C212 3658   6.459   8.832   5.294  0.4609 -0.5878  0.1705
   27DOPC  H12R 3659   6.376   8.868   5.358  0.8647 -2.5730  1.9211
   27DOPC  H12S 3660   6.442   8.722   5.291 -3.0613 -0.1413 -0.5561
   27DOPC  C213 3661   6.447   8.871   5.148  0.3952 -1.4540 -0.1973
   27DOPC  H13R 3662   6.527   8.823   5.087 -0.0259 -0.5896 -1.4695
   27DOPC  H13S 3663   6.450   8.982   5.149 -0.2263 -1.4331  1.5750
   27DOPC  C214 3664   6.324   8.827   5.083  0.0223 -0.7412  0.0696
   27DOPC  H14R 3665   6.231   8.861   5.134 -1.0107  0.7030 -2.5896
   27DOPC  H14S 3666   6.320   8.716   5.078 -0.7036 -0.6652 -1.5882
   27DOPC  C215 3667   6.314   8.897   4.942 -0.0782 -0.4320  0.6377
   27DOPC  H15R 3668   6.399   8.864   4.879  2.5376 -1.9747  4.6037
   27DOPC  H15S 3669   6.328   9.007   4.951  2.6239 -0.4968 -1.5332
   27DOPC  C216 3670   6.183   8.852   4.872 -0.4922 -0.5817 -0.2023
   27DOPC  H16R 3671   6.107   8.883   4.947  0.1643 -2.5792  1.4013
   27DOPC  H16S 3672   6.165   8.742   4.867 -2.8265 -0.2028 -1.1295
   27DOPC  C217 3673   6.153   8.920   4.738 -0.3810  0.9474 -0.0381
   27DOPC  H17R 3674   6.162   9.030   4.741 -3.6754  1.2996  0.2863
   27DOPC  H17S 3675   6.049   8.900   4.706 -0.3886  0.5830  0.1983
   27DOPC  C218 3676   6.228   8.857   4.625 -0.4408  0.0523  0.0024
   27DOPC  H18R 3677   6.337   8.855   4.649 -0.3321 -1.3095 -0.5285
   27DOPC  H18S 3678   6.227   8.918   4.532  1.1072  1.4287  0.8386
   27DOPC  H18T 3679   6.196   8.752   4.607 -1.4807  0.2840  0.4358
   27DOPC   C33 3680   6.760   8.077   5.390  0.8462  0.1672 -0.0525
   27DOPC   H3X 3681   6.763   7.970   5.418  0.4732 -0.0356 -0.7451
   27DOPC   H3Y 3682   6.866   8.109   5.382  1.8887 -2.8901  0.3381
   27DOPC   C34 3683   6.705   8.092   5.250  0.2120  0.0047  0.2547
   27DOPC   H4X 3684   6.598   8.061   5.257 -0.5995  2.4340 -0.4173
   27DOPC   H4Y 3685   6.748   8.020   5.177 -0.0796 -1.5339  1.5548
   27DOPC   C35 3686   6.712   8.233   5.193  0.5679  0.8659 -0.6078
   27DOPC   H5X 3687   6.816   8.270   5.182  0.3998  2.6907  2.6640
   27DOPC   H5Y 3688   6.652   8.305   5.252  1.6909  0.8086  0.6612
   27DOPC   C36 3689   6.635   8.222   5.061  0.3639  0.3510 -0.4925
   27DOPC   H6X 3690   6.679   8.146   4.992  0.2787  0.0202 -0.1869
   27DOPC   H6Y 3691   6.535   8.180   5.086  1.4962 -3.1988 -1.3587
   27DOPC   C37 3692   6.604   8.354   4.997  0.2402 -0.0710  0.2029
   27DOPC   H7X 3693   6.557   8.424   5.070 -0.4501 -1.1594  0.8256
   27DOPC   H7Y 3694   6.706   8.392   4.977  0.3680 -1.1713 -1.4377
   27DOPC   C38 3695   6.513   8.353   4.877 -0.8420 -0.0943 -0.6706
   27DOPC   H8X 3696   6.407   8.343   4.907 -0.8169  1.5522  0.0956
   27DOPC   H8Y 3697   6.538   8.264   4.816  0.6143  0.3235 -0.7192
   27DOPC   C39 3698   6.526   8.464   4.785 -0.2195  0.4593 -0.1253
   27DOPC   H9X 3699   6.590   8.541   4.831  1.8852 -1.1300 -0.2409
   27DOPC  C310 3700   6.457   8.485   4.673 -0.0234 -0.0253 -0.6686
   27DOPC  H10X 3701   6.466   8.584   4.626  0.6540 -0.8886 -2.4430
   27DOPC  C311 3702   6.370   8.387   4.601  0.3336 -0.0403  0.3205
   27DOPC  H11X 3703   6.263   8.417   4.608  0.6857  1.2935  0.3193
   27DOPC  H11Y 3704   6.389   8.286   4.642 -1.3838 -0.8818 -0.8371
   27DOPC  C312 3705   6.398   8.366   4.455  0.0957  0.4266 -0.0192
   27DOPC  H12X 3706   6.383   8.460   4.397 -0.5780  1.3189  1.5374
   27DOPC  H12Y 3707   6.317   8.298   4.418  1.6380 -0.6623 -1.5538
   27DOPC  C313 3708   6.534   8.307   4.415  0.0331 -0.2966  0.3049
   27DOPC  H13X 3709   6.605   8.388   4.442 -0.1806 -0.7549  2.3725
   27DOPC  H13Y 3710   6.552   8.223   4.486 -0.1123  0.0597  0.7645
   27DOPC  C314 3711   6.535   8.266   4.260  0.3024  0.0291  0.0336
   27DOPC  H14X 3712   6.464   8.183   4.239 -0.1557  0.7265 -1.2807
   27DOPC  H14Y 3713   6.503   8.353   4.199  3.1622  1.8953  0.9614
   27DOPC  C315 3714   6.676   8.229   4.214 -0.8857 -0.1571  0.2611
   27DOPC  H15X 3715   6.711   8.141   4.272  1.9547  0.3535 -0.5502
   27DOPC  H15Y 3716   6.753   8.303   4.244  1.3360 -3.0467  2.1766
   27DOPC  C316 3717   6.690   8.201   4.065  0.1152 -0.2826 -0.4121
   27DOPC  H16X 3718   6.635   8.107   4.044 -1.0853  0.2411  0.2696
   27DOPC  H16Y 3719   6.643   8.277   3.999 -0.2272 -2.3516 -2.6694
   27DOPC  C317 3720   6.838   8.191   4.012  0.1336 -0.1518 -0.2674
   27DOPC  H17X 3721   6.891   8.289   4.006 -0.1151  0.1334  1.5529
   27DOPC  H17Y 3722   6.900   8.127   4.079 -1.5920  1.6398  3.3764
   27DOPC  C318 3723   6.829   8.140   3.867  0.2317 -0.2137  0.1236
   27DOPC  H18X 3724   6.764   8.050   3.864  0.2862 -0.2327 -1.3315
   27DOPC  H18Y 3725   6.778   8.208   3.796  0.9961 -0.7352 -0.9629
   27DOPC  H18Z 3726   6.924   8.110   3.819  0.6631 -0.8275  1.3184
   28DOPC     N 3727   6.952   4.562   5.850 -0.1721 -0.4458  0.5414
   28DOPC   C12 3728   6.981   4.476   5.729  0.2136 -0.2884  0.0452
   28DOPC  H12A 3729   6.936   4.514   5.639  1.1770 -1.6806 -1.0803
   28DOPC  H12B 3730   6.932   4.382   5.752  0.2211 -0.9381 -2.3235
   28DOPC   C13 3731   7.003   4.496   5.976 -0.5832 -0.2112  0.8488
   28DOPC  H13A 3732   6.950   4.409   6.011 -1.3006  0.0758  0.4747
   28DOPC  H13B 3733   7.107   4.468   5.965 -0.6980 -0.4948  0.4770
   28DOPC  H13C 3734   7.007   4.565   6.059  3.1944 -0.2291  0.8858
   28DOPC   C14 3735   6.807   4.601   5.862 -0.4568  0.0604  0.1472
   28DOPC  H14A 3736   6.794   4.667   5.778 -0.5533  2.0742  1.6661
   28DOPC  H14B 3737   6.747   4.511   5.859  1.1348 -1.0394  0.3843
   28DOPC  H14C 3738   6.787   4.662   5.949  0.6362  0.2651  0.2703
   28DOPC   C15 3739   7.028   4.693   5.840 -0.1282  0.0070  0.7305
   28DOPC  H15A 3740   7.053   4.742   5.933  2.0689 -0.5300  0.4918
   28DOPC  H15B 3741   6.974   4.759   5.774  1.7542  1.2564  0.3368
   28DOPC  H15C 3742   7.126   4.680   5.796 -0.8674 -1.3410 -0.5980
   28DOPC   C11 3743   7.129   4.437   5.695 -0.4717 -0.2129  0.0262
   28DOPC  H11A 3744   7.109   4.375   5.605  0.4639 -1.8255  0.8905
   28DOPC  H11B 3745   7.195   4.522   5.664  1.2047 -1.8448 -1.1055
   28DOPC     P 3746   7.221   4.213   5.794 -0.1355  0.1326  0.4477
   28DOPC   O13 3747   7.100   4.136   5.765 -0.4001 -0.4490  0.0763
   28DOPC   O14 3748   7.289   4.181   5.918  0.0780  0.3744  0.4986
   28DOPC   O12 3749   7.188   4.369   5.805 -0.3391  0.0424  0.2768
   28DOPC   O11 3750   7.319   4.178   5.683 -0.3418  0.6341  0.4382
   28DOPC    C1 3751   7.424   4.280   5.660 -0.2030 -0.0844 -0.3138
   28DOPC    HA 3752   7.492   4.292   5.748 -0.4235 -1.4908  0.0770
   28DOPC    HB 3753   7.386   4.384   5.657 -0.3058 -0.1080  0.0629
   28DOPC    C2 3754   7.511   4.254   5.538 -0.0555  0.0520 -0.6930
   28DOPC    HS 3755   7.573   4.343   5.513  1.0268 -1.2682 -3.1220
   28DOPC   O21 3756   7.421   4.230   5.434 -0.5119 -0.1326 -0.5352
   28DOPC   C21 3757   7.338   4.323   5.386 -0.3539 -0.0377 -0.2793
   28DOPC   O22 3758   7.328   4.440   5.413 -0.1521 -0.5627 -0.0879
   28DOPC   C22 3759   7.268   4.251   5.268 -0.1131 -0.1334  0.1746
   28DOPC   H2R 3760   7.180   4.313   5.239 -1.4086 -1.3998  1.2437
   28DOPC   H2S 3761   7.220   4.159   5.306 -1.4878  1.0127  1.3193
   28DOPC    C3 3762   7.610   4.132   5.560  0.1996  0.1911  0.5964
   28DOPC    HX 3763   7.557   4.043   5.599  0.4856  0.0324  0.6270
   28DOPC    HY 3764   7.677   4.157   5.646 -0.0920  1.8780  0.3663
   28DOPC   O31 3765   7.682   4.113   5.435  0.1853 -0.2411  0.1022
   28DOPC   C31 3766   7.649   4.019   5.344 -0.5797 -0.4213  0.1547
   28DOPC   O32 3767   7.533   3.971   5.353 -0.0881  0.3834  0.6437
   28DOPC   C32 3768   7.758   3.977   5.239  0.4955  0.8744  0.0770
   28DOPC   H2X 3769   7.827   4.061   5.218  2.0951 -0.3904  0.0921
   28DOPC   H2Y 3770   7.807   3.900   5.302 -2.4165 -1.2779 -0.0906
   28DOPC   C23 3771   7.354   4.209   5.141  0.6188  0.0171  0.1043
   28DOPC   H3R 3772   7.453   4.161   5.157  0.9698  0.3396 -0.9647
   28DOPC   H3S 3773   7.373   4.309   5.096  1.6062 -0.9378 -1.7340
   28DOPC   C24 3774   7.268   4.129   5.045  0.6159  0.8741  0.5581
   28DOPC   H4R 3775   7.220   4.043   5.096 -0.3425  0.5265 -0.8654
   28DOPC   H4S 3776   7.334   4.076   4.973 -0.4676 -2.0317  1.5771
   28DOPC   C25 3777   7.166   4.211   4.977  0.2619 -0.0938 -0.3294
   28DOPC   H5R 3778   7.226   4.295   4.936  1.3659  0.0274  1.4025
   28DOPC   H5S 3779   7.089   4.251   5.046  2.0246  2.4694  0.2783
   28DOPC   C26 3780   7.106   4.137   4.856  0.1753  0.9777 -0.9815
   28DOPC   H6R 3781   7.017   4.189   4.814 -1.0734  1.2453  1.7688
   28DOPC   H6S 3782   7.085   4.033   4.889  2.1507  1.6075  2.8701
   28DOPC   C27 3783   7.207   4.123   4.740  0.4360 -0.0356  0.5872
   28DOPC   H7R 3784   7.290   4.055   4.766  1.4839  1.0335  0.1554
   28DOPC   H7S 3785   7.264   4.217   4.722  2.6440 -1.6638 -1.5627
   28DOPC   C28 3786   7.126   4.082   4.609  0.4569  0.3112  0.2736
   28DOPC   H8R 3787   7.041   4.152   4.593  0.0672 -0.2292 -0.0226
   28DOPC   H8S 3788   7.082   3.981   4.624 -2.0493  1.1999 -0.5329
   28DOPC   C29 3789   7.192   4.070   4.472 -0.1291 -0.1103  0.1904
   28DOPC   H9R 3790   7.147   4.143   4.403  0.7502  1.3839  1.1515
   28DOPC  C210 3791   7.285   3.988   4.421  0.0247  0.5070 -0.3338
   28DOPC  H10R 3792   7.319   4.002   4.317 -1.0070  0.7303 -0.6563
   28DOPC  C211 3793   7.357   3.874   4.494 -0.7755  0.4246  0.4728
   28DOPC  H11R 3794   7.361   3.896   4.603 -0.9477  1.4736  0.2739
   28DOPC  H11S 3795   7.465   3.880   4.473 -0.4877  0.5930  1.8594
   28DOPC  C212 3796   7.310   3.733   4.459  0.3916  0.1745  0.4669
   28DOPC  H12R 3797   7.386   3.663   4.500 -0.1207 -1.1158 -0.7012
   28DOPC  H12S 3798   7.302   3.707   4.351 -3.9234  0.3661  0.5707
   28DOPC  C213 3799   7.173   3.711   4.525  0.0807  0.3413  0.2446
   28DOPC  H13R 3800   7.100   3.774   4.471  0.0665 -0.4218 -0.6648
   28DOPC  H13S 3801   7.170   3.760   4.624  1.1183 -0.5645  0.7480
   28DOPC  C214 3802   7.127   3.564   4.534 -0.5661  0.0037  0.1038
   28DOPC  H14R 3803   7.166   3.515   4.626  2.2206  1.1745 -0.3752
   28DOPC  H14S 3804   7.169   3.501   4.453  2.2448  0.9146  0.7356
   28DOPC  C215 3805   6.970   3.554   4.531 -0.0818  0.3742  0.5070
   28DOPC  H15R 3806   6.914   3.613   4.455 -2.1596 -2.2373 -0.1348
   28DOPC  H15S 3807   6.939   3.595   4.630  1.7053  1.5065  0.6500
   28DOPC  C216 3808   6.928   3.402   4.522 -0.1109 -0.3513  0.0093
   28DOPC  H16R 3809   6.841   3.374   4.585  0.4474 -1.4702  0.3021
   28DOPC  H16S 3810   7.012   3.344   4.566  0.7295  0.9643  0.1990
   28DOPC  C217 3811   6.898   3.344   4.381 -0.1675  0.4963  0.3495
   28DOPC  H17R 3812   6.889   3.234   4.393  0.4114  0.4858  0.7319
   28DOPC  H17S 3813   6.982   3.356   4.309  0.3594  0.3747  0.9319
   28DOPC  C218 3814   6.767   3.415   4.325 -0.1789 -0.0850  0.4365
   28DOPC  H18R 3815   6.718   3.340   4.258 -0.6812  0.5810  0.0445
   28DOPC  H18S 3816   6.790   3.497   4.254 -3.6320  0.1757 -0.6026
   28DOPC  H18T 3817   6.696   3.442   4.406 -0.2387  0.1919  0.2920
   28DOPC   C33 3818   7.709   3.898   5.120 -0.3815 -0.6084 -0.1591
   28DOPC   H3X 3819   7.623   3.949   5.072  0.3097  0.0608 -0.7267
   28DOPC   H3Y 3820   7.675   3.796   5.147 -1.2331  0.0957  1.5867
   28DOPC   C34 3821   7.812   3.877   5.010 -0.1851  0.0550 -0.6752
   28DOPC   H4X 3822   7.881   3.793   5.035 -0.1960  0.1060 -0.4699
   28DOPC   H4Y 3823   7.862   3.974   4.994 -1.4847  1.5705  3.2724
   28DOPC   C35 3824   7.747   3.829   4.877 -0.3017  0.7441  0.3479
   28DOPC   H5X 3825   7.663   3.894   4.844 -1.3623 -1.9797 -2.9727
   28DOPC   H5Y 3826   7.712   3.724   4.887  1.3092 -0.0788 -1.8650
   28DOPC   C36 3827   7.855   3.809   4.769  0.6135  0.2066 -0.2082
   28DOPC   H6X 3828   7.889   3.912   4.746 -1.5387  1.2238  0.8074
   28DOPC   H6Y 3829   7.938   3.740   4.795 -0.4329 -2.3582 -3.0704
   28DOPC   C37 3830   7.810   3.755   4.629  0.2034  0.7632 -0.3432
   28DOPC   H7X 3831   7.765   3.655   4.641  0.7793  0.4820 -0.4956
   28DOPC   H7Y 3832   7.736   3.830   4.594 -0.3901  1.2504  1.7636
   28DOPC   C38 3833   7.921   3.754   4.523 -0.4012  0.4301  0.7221
   28DOPC   H8X 3834   8.004   3.697   4.570 -0.5157  1.2334  1.9450
   28DOPC   H8Y 3835   7.965   3.856   4.526 -0.3557  0.4211  0.3837
   28DOPC   C39 3836   7.892   3.715   4.384  0.1257 -0.3044 -0.1856
   28DOPC   H9X 3837   7.908   3.609   4.358 -2.0164 -0.2817 -1.9200
   28DOPC  C310 3838   7.844   3.801   4.287 -0.3874  0.3403  0.3787
   28DOPC  H10X 3839   7.834   3.757   4.187  3.5796 -0.9267  0.3346
   28DOPC  C311 3840   7.816   3.944   4.309  0.0398 -0.2101 -0.0102
   28DOPC  H11X 3841   7.883   3.995   4.382 -2.4566  2.0672  0.8846
   28DOPC  H11Y 3842   7.715   3.957   4.354  1.1650  0.6620  2.4470
   28DOPC  C312 3843   7.833   4.020   4.179  0.4529 -0.3727 -0.0432
   28DOPC  H12X 3844   7.769   3.979   4.098  0.1518  1.6987 -0.9214
   28DOPC  H12Y 3845   7.936   4.010   4.139  1.1729  3.6689  0.3820
   28DOPC  C313 3846   7.814   4.175   4.208 -0.5164  0.2129  0.5969
   28DOPC  H13X 3847   7.717   4.200   4.255 -0.0182  0.5702  1.4630
   28DOPC  H13Y 3848   7.894   4.210   4.277 -0.2521 -1.3256  1.1199
   28DOPC  C314 3849   7.827   4.258   4.075  0.1754  0.1488  0.3682
   28DOPC  H14X 3850   7.923   4.237   4.024 -1.2646 -0.0399 -2.4499
   28DOPC  H14Y 3851   7.752   4.227   3.999 -0.4008  1.5997  0.3086
   28DOPC  C315 3852   7.815   4.414   4.093 -0.0299  0.2949 -0.0701
   28DOPC  H15X 3853   7.710   4.436   4.121 -0.1981  1.5986 -1.5488
   28DOPC  H15Y 3854   7.831   4.448   3.988  1.3352 -0.0390  0.0052
   28DOPC  C316 3855   7.908   4.481   4.199 -0.0292  0.7490  0.6009
   28DOPC  H16X 3856   7.873   4.586   4.206 -1.9333  0.1851  0.2083
   28DOPC  H16Y 3857   7.881   4.429   4.293  0.6694 -2.1424 -0.6775
   28DOPC  C317 3858   8.056   4.461   4.170  0.0526 -0.5961 -0.3147
   28DOPC  H17X 3859   8.076   4.352   4.158  1.8198 -0.2180 -1.1590
   28DOPC  H17Y 3860   8.081   4.511   4.074 -1.3929  0.2676 -0.2766
   28DOPC  C318 3861   8.142   4.514   4.286  0.0745 -0.0622  0.3243
   28DOPC  H18X 3862   8.092   4.497   4.384 -3.1147 -0.9436 -1.3424
   28DOPC  H18Y 3863   8.241   4.463   4.285 -0.7037 -1.6678 -2.4470
   28DOPC  H18Z 3864   8.170   4.622   4.286 -2.6362  0.7117  0.2669
   29DOPC     N 3865   3.981   9.967   6.036  0.1021  0.0735 -0.3366
   29DOPC   C12 3866   3.989  10.062   6.151  0.9553 -0.4031 -0.6557
   29DOPC  H12A 3867   3.941  10.007   6.231  1.3451 -1.2667 -0.9969
   29DOPC  H12B 3868   3.915  10.137   6.128  1.4635  0.4013  0.2388
   29DOPC   C13 3869   4.051  10.023   5.921 -0.0907  0.2123  0.3376
   29DOPC  H13A 3870   4.005  10.118   5.898 -0.8808 -0.4041 -0.6881
   29DOPC  H13B 3871   4.151  10.048   5.955  0.0922 -1.8330  1.4828
   29DOPC  H13C 3872   4.048   9.960   5.834 -1.0536  0.1296  0.4270
   29DOPC   C14 3873   3.838   9.927   5.989 -0.4437 -0.0681  0.2903
   29DOPC  H14A 3874   3.796   9.867   6.068  0.2307 -0.1286  0.6091
   29DOPC  H14B 3875   3.779  10.013   5.958  0.1864 -0.5245 -2.4233
   29DOPC  H14C 3876   3.856   9.879   5.894 -3.2497  0.3382 -0.5313
   29DOPC   C15 3877   4.059   9.844   6.088  0.1217 -0.0659  1.1600
   29DOPC  H15A 3878   4.014   9.786   6.168 -3.4091  0.1507 -0.4701
   29DOPC  H15B 3879   4.160   9.862   6.124  1.2381 -2.6837 -0.4340
   29DOPC  H15C 3880   4.061   9.768   6.012  2.0832  2.3984 -1.4682
   29DOPC   C11 3881   4.123  10.137   6.185 -0.1409  0.4684  0.1344
   29DOPC  H11A 3882   4.107  10.196   6.278 -1.2218 -0.1117  0.3423
   29DOPC  H11B 3883   4.198  10.056   6.197  0.0545  0.6937  0.4481
   29DOPC     P 3884   4.096  10.368   6.061  0.0873 -0.0442 -0.0560
   29DOPC   O13 3885   4.174  10.469   6.134  0.5465  0.2669 -0.2330
   29DOPC   O14 3886   3.950  10.357   6.097 -0.4416  0.7857 -0.5464
   29DOPC   O12 3887   4.162  10.230   6.085 -0.0917  0.4121  0.4435
   29DOPC   O11 3888   4.110  10.392   5.900 -0.6787  0.8279 -0.5582
   29DOPC    C1 3889   4.246  10.401   5.848  0.1843 -0.0370  0.3861
   29DOPC    HA 3890   4.324  10.349   5.906 -0.3925 -1.4902 -0.0819
   29DOPC    HB 3891   4.271  10.509   5.846 -1.7445  0.5054  2.4232
   29DOPC    C2 3892   4.261  10.340   5.707  0.1352  0.2258  0.7255
   29DOPC    HS 3893   4.368  10.314   5.695 -0.1639 -2.1248  2.4408
   29DOPC   O21 3894   4.217  10.434   5.614 -0.2732  0.0550 -0.3040
   29DOPC   C21 3895   4.312  10.528   5.585 -0.0726  0.0879 -0.2422
   29DOPC   O22 3896   4.422  10.529   5.633 -0.8718 -0.0849  0.0059
   29DOPC   C22 3897   4.257  10.619   5.471  0.5181  0.0878 -0.0947
   29DOPC   H2R 3898   4.290  10.722   5.496  0.0223 -0.0106  0.9870
   29DOPC   H2S 3899   4.146  10.613   5.473  0.3090  2.2286 -1.6027
   29DOPC    C3 3900   4.184  10.207   5.683  0.4311  0.0711  0.1781
   29DOPC    HX 3901   4.075  10.230   5.681  0.3287 -0.1851  1.7294
   29DOPC    HY 3902   4.209  10.132   5.762  0.9744  1.4794  1.3851
   29DOPC   O31 3903   4.220  10.149   5.555  0.5296 -0.0450 -0.1395
   29DOPC   C31 3904   4.159  10.040   5.524  0.5664 -0.4610  0.2032
   29DOPC   O32 3905   4.077   9.982   5.601 -0.1930 -0.5140 -0.1942
   29DOPC   C32 3906   4.191   9.998   5.381  0.0447 -0.0413 -0.4157
   29DOPC   H2X 3907   4.149  10.071   5.308 -0.2240  0.8113  0.5596
   29DOPC   H2Y 3908   4.302  10.001   5.379  0.0653  0.1605  0.4327
   29DOPC   C23 3909   4.304  10.556   5.338  0.0736  0.3076  0.2195
   29DOPC   H3R 3910   4.279  10.448   5.332 -1.6251  0.7589 -2.2077
   29DOPC   H3S 3911   4.415  10.561   5.337  0.1519 -0.6719  1.6947
   29DOPC   C24 3912   4.245  10.621   5.208 -0.7100  0.3862 -0.3972
   29DOPC   H4R 3913   4.135  10.607   5.212 -0.6112 -0.1977  1.0169
   29DOPC   H4S 3914   4.282  10.574   5.115 -0.9793  1.4780 -1.0861
   29DOPC   C25 3915   4.250  10.775   5.190 -0.1497 -0.2463 -0.2188
   29DOPC   H5R 3916   4.356  10.799   5.170 -0.2651  0.4111 -0.0675
   29DOPC   H5S 3917   4.216  10.814   5.289 -0.2074  1.9295 -1.0420
   29DOPC   C26 3918   4.153  10.830   5.083 -0.0158  0.7743  0.2600
   29DOPC   H6R 3919   4.175  10.937   5.061  1.1058  0.0777 -2.6082
   29DOPC   H6S 3920   4.048  10.827   5.118  0.6147 -0.6586  2.2036
   29DOPC   C27 3921   4.173  10.778   4.941 -0.0703 -0.5790 -0.0798
   29DOPC   H7R 3922   4.173  10.667   4.946 -0.9641 -0.5305  1.3976
   29DOPC   H7S 3923   4.273  10.807   4.901  0.5345 -1.6952  0.5738
   29DOPC   C28 3924   4.064  10.828   4.841 -0.5331  0.1585 -0.0432
   29DOPC   H8R 3925   4.062  10.939   4.845 -0.2442  0.1983 -0.9406
   29DOPC   H8S 3926   3.968  10.785   4.879 -1.1989  0.9229 -0.8236
   29DOPC   C29 3927   4.086  10.776   4.703  0.4593  0.9669  0.1735
   29DOPC   H9R 3928   4.024  10.686   4.689  1.2638 -0.0622  2.6459
   29DOPC  C210 3929   4.162  10.828   4.608  0.0231  0.1796 -0.2748
   29DOPC  H10R 3930   4.188  10.769   4.518 -0.9509 -2.1414  0.8902
   29DOPC  C211 3931   4.240  10.953   4.611  0.0864 -0.3154  0.2709
   29DOPC  H11R 3932   4.202  11.018   4.693  2.8835  0.3282  1.1837
   29DOPC  H11S 3933   4.217  11.020   4.525 -4.1067 -0.1118  1.3437
   29DOPC  C212 3934   4.392  10.924   4.622 -0.6482 -0.7465  0.6232
   29DOPC  H12R 3935   4.435  10.875   4.532 -0.8086  2.6200 -1.4806
   29DOPC  H12S 3936   4.403  10.853   4.707  0.6017 -1.8180 -0.3953
   29DOPC  C213 3937   4.471  11.047   4.662  0.2830 -0.4431  0.2646
   29DOPC  H13R 3938   4.444  11.089   4.761  1.4518  0.4186  0.2438
   29DOPC  H13S 3939   4.460  11.133   4.592  1.6947  0.0341  0.5901
   29DOPC  C214 3940   4.626  11.023   4.669  0.3840 -0.2398  0.1068
   29DOPC  H14R 3941   4.659  10.994   4.568  1.2807 -2.4586  0.9754
   29DOPC  H14S 3942   4.656  10.937   4.734  3.7950  0.9121  0.2129
   29DOPC  C215 3943   4.703  11.144   4.710 -0.0407 -0.1875  0.3386
   29DOPC  H15R 3944   4.810  11.116   4.705 -0.1047 -0.2801 -0.6870
   29DOPC  H15S 3945   4.686  11.173   4.816  1.2433 -0.8734  0.7581
   29DOPC  C216 3946   4.681  11.252   4.605 -0.1004 -0.1643 -0.8465
   29DOPC  H16R 3947   4.589  11.310   4.626  0.0703 -0.5085  1.0318
   29DOPC  H16S 3948   4.674  11.199   4.508  0.9581  0.2611 -1.1708
   29DOPC  C217 3949   4.793  11.359   4.594 -0.2563  0.3276  0.2858
   29DOPC  H17R 3950   4.891  11.309   4.581  0.3581  0.7054  3.0164
   29DOPC  H17S 3951   4.801  11.412   4.691  2.5177 -1.4848  1.1759
   29DOPC  C218 3952   4.781  11.460   4.479  0.0623 -0.5586  0.6979
   29DOPC  H18R 3953   4.879  11.501   4.448 -0.1517 -1.2832 -0.9988
   29DOPC  H18S 3954   4.708  11.540   4.507 -0.0866 -0.3793 -0.1953
   29DOPC  H18T 3955   4.742  11.399   4.396  0.8704 -3.2155  2.1519
   29DOPC   C33 3956   4.136   9.860   5.346  0.0478 -0.1772  0.2727
   29DOPC   H3X 3957   4.028   9.859   5.370  0.1603  0.2067  0.8197
   29DOPC   H3Y 3958   4.195   9.783   5.400  0.7514 -0.5540 -0.9706
   29DOPC   C34 3959   4.132   9.825   5.194  0.0071  0.3327 -0.0709
   29DOPC   H4X 3960   4.126   9.716   5.174  2.3309  0.0107  0.7106
   29DOPC   H4Y 3961   4.231   9.845   5.149 -0.0964  0.2416 -0.3466
   29DOPC   C35 3962   4.038   9.908   5.120 -0.1865 -0.0055 -0.3270
   29DOPC   H5X 3963   4.058  10.016   5.136  1.5511 -0.5671  1.6888
   29DOPC   H5Y 3964   3.932   9.891   5.149 -0.1125  0.8087  0.4396
   29DOPC   C36 3965   4.036   9.894   4.969 -0.2496 -0.3396 -0.0469
   29DOPC   H6X 3966   4.028   9.787   4.940 -2.9772 -0.5851  1.2756
   29DOPC   H6Y 3967   3.942   9.936   4.929  0.5675  0.5507 -1.0936
   29DOPC   C37 3968   4.155   9.962   4.892 -0.5378  0.1291  0.0614
   29DOPC   H7X 3969   4.135  10.071   4.902  0.6846  0.3144  0.7002
   29DOPC   H7Y 3970   4.251   9.943   4.944  0.1195  1.7862 -0.4594
   29DOPC   C38 3971   4.160   9.923   4.742 -0.6853  0.3205 -0.0941
   29DOPC   H8X 3972   4.180   9.814   4.734 -1.6932  0.0770  0.6393
   29DOPC   H8Y 3973   4.252   9.976   4.709 -1.2207  2.5631  1.7223
   29DOPC   C39 3974   4.034   9.962   4.670  0.3133 -0.3319  0.4693
   29DOPC   H9X 3975   3.948   9.996   4.729  0.2416  1.0118 -0.3682
   29DOPC  C310 3976   4.022   9.956   4.540 -0.2197  0.3891  0.1852
   29DOPC  H10X 3977   3.936  10.006   4.492 -0.3172  0.4982  0.4724
   29DOPC  C311 3978   4.124   9.907   4.446 -0.3413 -0.5613  0.6612
   29DOPC  H11X 3979   4.108   9.804   4.409  2.2125 -0.8328  0.0806
   29DOPC  H11Y 3980   4.223   9.903   4.496  0.7607 -0.9442 -1.4393
   29DOPC  C312 3981   4.136   9.995   4.321  0.8196  0.4806  0.8538
   29DOPC  H12X 3982   4.232   9.976   4.269 -0.5933  1.3548 -2.2837
   29DOPC  H12Y 3983   4.153  10.100   4.351  2.3840  1.2581 -2.3642
   29DOPC  C313 3984   4.014   9.987   4.222 -0.0256 -0.1012  0.2049
   29DOPC  H13X 3985   4.010   9.880   4.191 -1.0490 -0.9034  2.8414
   29DOPC  H13Y 3986   3.925  10.013   4.284 -0.1195 -0.0631  0.0551
   29DOPC  C314 3987   4.024  10.089   4.109  0.1027 -0.0262  0.1347
   29DOPC  H14X 3988   4.033  10.190   4.155  1.9053 -1.0296  2.1497
   29DOPC  H14Y 3989   4.127  10.082   4.067 -0.8188 -2.0157 -2.0305
   29DOPC  C315 3990   3.917  10.094   3.995 -0.5149 -0.1061  0.2605
   29DOPC  H15X 3991   3.928   9.997   3.940  1.0817  1.3844 -2.2369
   29DOPC  H15Y 3992   3.961  10.164   3.920  1.6558 -0.8379  0.7532
   29DOPC  C316 3993   3.775  10.138   4.038 -0.2883  0.7707  0.1604
   29DOPC  H16X 3994   3.727  10.044   4.074 -1.3833  1.4357  0.5124
   29DOPC  H16Y 3995   3.791  10.206   4.125  0.2019  2.2488 -1.0413
   29DOPC  C317 3996   3.693  10.213   3.935 -0.4943  0.6385  0.2514
   29DOPC  H17X 3997   3.594  10.244   3.976 -0.5186  0.2285  0.5062
   29DOPC  H17Y 3998   3.749  10.304   3.905 -1.5058  1.1452 -0.1456
   29DOPC  C318 3999   3.678  10.128   3.803  0.5898  0.1809  0.2107
   29DOPC  H18X 4000   3.780  10.111   3.761  0.9607 -0.1958  1.2419
   29DOPC  H18Y 4001   3.630  10.031   3.829  2.6547 -0.7701  0.6327
   29DOPC  H18Z 4002   3.615  10.182   3.729 -0.7626  0.5436  1.5812
   30DOPC     N 4003   9.849   3.909   6.239  0.1673  1.2703 -0.1180
   30DOPC   C12 4004   9.949   3.805   6.289  0.0895 -0.5857  0.7387
   30DOPC  H12A 4005  10.001   3.839   6.377  0.2761  2.4754 -0.4609
   30DOPC  H12B 4006  10.025   3.788   6.214  0.3177  2.4033  0.1684
   30DOPC   C13 4007   9.744   3.942   6.347  0.1660  0.2187 -0.1072
   30DOPC  H13A 4008   9.787   3.996   6.430 -1.4970  3.0893 -0.9534
   30DOPC  H13B 4009   9.676   4.014   6.303 -1.5059 -0.9059  0.5691
   30DOPC  H13C 4010   9.689   3.855   6.377 -0.8638  0.2808 -1.6842
   30DOPC   C14 4011   9.767   3.849   6.124 -0.0595  0.2900  0.1502
   30DOPC  H14A 4012   9.713   3.761   6.155 -0.2669 -0.3615 -1.9437
   30DOPC  H14B 4013   9.699   3.917   6.074 -0.6245  1.3363  2.2178
   30DOPC  H14C 4014   9.833   3.815   6.046 -1.4464 -3.1628  0.3300
   30DOPC   C15 4015   9.904   4.038   6.194  0.5203  0.4261 -0.4376
   30DOPC  H15A 4016   9.828   4.099   6.148  0.4288 -0.4343 -1.4776
   30DOPC  H15B 4017   9.975   4.012   6.117  0.4252  0.8070 -0.6579
   30DOPC  H15C 4018   9.961   4.086   6.272  1.2855  0.7959 -1.2037
   30DOPC   C11 4019   9.898   3.663   6.311  0.5044  1.1521 -0.7060
   30DOPC  H11A 4020   9.818   3.665   6.388 -0.1081  3.0105 -1.3374
   30DOPC  H11B 4021   9.851   3.615   6.223  3.4878 -0.9735 -1.2947
   30DOPC     P 4022  10.121   3.530   6.260  0.2417 -0.0184 -0.1526
   30DOPC   O13 4023  10.177   3.404   6.307  0.5685 -0.0849  0.3546
   30DOPC   O14 4024  10.216   3.635   6.232 -0.1594 -0.4052 -0.6184
   30DOPC   O12 4025  10.004   3.572   6.355 -0.2788  0.3396  0.5805
   30DOPC   O11 4026  10.039   3.499   6.127  0.3210 -0.3597  0.6434
   30DOPC    C1 4027  10.099   3.417   6.021  0.3435 -0.2642  0.4292
   30DOPC    HA 4028  10.208   3.400   6.025  0.0039 -2.8182  0.4701
   30DOPC    HB 4029  10.073   3.466   5.925  0.0747 -0.4129  0.4237
   30DOPC    C2 4030  10.055   3.270   6.019 -0.1390 -0.9829  0.6737
   30DOPC    HS 4031  10.073   3.225   6.119 -0.6728 -3.7502 -0.4022
   30DOPC   O21 4032  10.139   3.205   5.927  0.2021 -0.0869  0.1537
   30DOPC   C21 4033  10.154   3.070   5.937 -0.7110  0.6879  0.2908
   30DOPC   O22 4034  10.079   3.001   6.005 -0.0086 -0.7540  0.4306
   30DOPC   C22 4035  10.284   3.014   5.862  0.2248 -0.0864  0.0624
   30DOPC   H2R 4036  10.367   3.048   5.927  0.4050  0.2959 -0.3627
   30DOPC   H2S 4037  10.290   3.066   5.764 -1.4255  0.7903  0.3739
   30DOPC    C3 4038   9.903   3.262   5.987  0.6389 -0.5927  0.1743
   30DOPC    HX 4039   9.850   3.329   6.059  0.6610 -1.7574  1.3261
   30DOPC    HY 4040   9.876   3.156   6.007  1.3743 -0.9797 -0.8685
   30DOPC   O31 4041   9.874   3.315   5.857 -0.1591  0.2176  0.5477
   30DOPC   C31 4042   9.751   3.316   5.828  0.1777 -0.5756  1.8560
   30DOPC   O32 4043   9.658   3.277   5.896 -0.2070 -0.7615 -0.4935
   30DOPC   C32 4044   9.734   3.386   5.693  0.8674 -0.5702 -0.9124
   30DOPC   H2X 4045   9.738   3.495   5.713 -0.0139 -0.7604  0.4631
   30DOPC   H2Y 4046   9.818   3.372   5.622 -0.7466  1.5533 -3.4115
   30DOPC   C23 4047  10.302   2.861   5.841 -0.0327 -0.2800 -0.3450
   30DOPC   H3R 4048  10.249   2.814   5.927  0.4056  1.3480  0.8894
   30DOPC   H3S 4049  10.410   2.837   5.833  0.2061  1.3628 -3.1856
   30DOPC   C24 4050  10.216   2.805   5.723  0.0493 -0.3027  0.2813
   30DOPC   H4R 4051  10.120   2.862   5.729  0.4994  0.3045  2.3173
   30DOPC   H4S 4052  10.203   2.697   5.742 -2.3421 -0.2498 -0.7155
   30DOPC   C25 4053  10.294   2.828   5.587 -0.1987  0.3817 -0.3195
   30DOPC   H5R 4054  10.394   2.780   5.593 -0.3024 -0.1176 -2.0036
   30DOPC   H5S 4055  10.290   2.936   5.561 -1.8701  0.6725  0.9141
   30DOPC   C26 4056  10.223   2.758   5.477 -0.6334  0.0281 -0.2154
   30DOPC   H6R 4057  10.123   2.799   5.450 -0.3533  0.1512 -1.1294
   30DOPC   H6S 4058  10.196   2.657   5.517 -1.5562  0.0415 -0.7697
   30DOPC   C27 4059  10.300   2.737   5.346  0.0313 -0.3787  0.1121
   30DOPC   H7R 4060  10.399   2.690   5.361  0.2573 -0.0025 -0.1806
   30DOPC   H7S 4061  10.326   2.836   5.301  2.3863 -1.0206 -0.0697
   30DOPC   C28 4062  10.211   2.650   5.246 -0.0472  0.0968 -0.6325
   30DOPC   H8R 4063  10.132   2.719   5.210 -0.0816  1.5106  1.9270
   30DOPC   H8S 4064  10.163   2.564   5.299  0.8764  0.2716  0.5273
   30DOPC   C29 4065  10.292   2.607   5.125  0.2955  0.2955 -0.3517
   30DOPC   H9R 4066  10.368   2.529   5.143  0.9987  1.2284  0.8251
   30DOPC  C210 4067  10.272   2.634   4.994 -0.5785 -0.5188 -0.4346
   30DOPC  H10R 4068  10.338   2.598   4.914 -1.5872  0.4677 -1.7669
   30DOPC  C211 4069  10.158   2.715   4.929 -0.0669  0.2431  0.2890
   30DOPC  H11R 4070  10.122   2.798   4.994 -0.3523  0.9401 -0.7318
   30DOPC  H11S 4071  10.070   2.654   4.898  0.2035  0.1119 -0.2376
   30DOPC  C212 4072  10.209   2.776   4.790  0.9021  0.7612 -0.1337
   30DOPC  H12R 4073  10.288   2.852   4.810  1.6290  0.1292 -0.5388
   30DOPC  H12S 4074  10.121   2.826   4.745 -0.7993 -1.2978  0.7227
   30DOPC  C213 4075  10.273   2.678   4.686 -0.5067 -0.8397  0.0696
   30DOPC  H13R 4076  10.378   2.658   4.717  0.9142  2.2471 -2.2521
   30DOPC  H13S 4077  10.293   2.724   4.587  0.5853 -1.8208 -0.1920
   30DOPC  C214 4078  10.189   2.549   4.666 -0.3419 -0.4264  0.3326
   30DOPC  H14R 4079  10.145   2.515   4.763 -1.6210  0.7960  0.2250
   30DOPC  H14S 4080  10.253   2.465   4.632 -0.7259 -1.2953  1.6363
   30DOPC  C215 4081  10.073   2.564   4.564 -0.4719  0.0354  0.4966
   30DOPC  H15R 4082  10.107   2.610   4.468  0.0065  2.9555  1.9589
   30DOPC  H15S 4083  10.002   2.634   4.614 -1.3618  0.5426 -1.3667
   30DOPC  C216 4084  10.004   2.431   4.535 -0.2518 -0.8096 -0.0933
   30DOPC  H16R 4085   9.982   2.383   4.633 -1.9549 -0.3687 -0.2353
   30DOPC  H16S 4086  10.058   2.372   4.458  1.4789  2.4173 -1.5736
   30DOPC  C217 4087   9.872   2.465   4.467 -0.4889 -0.0347  0.9570
   30DOPC  H17R 4088   9.893   2.521   4.374  1.8385  0.9162  1.9736
   30DOPC  H17S 4089   9.816   2.544   4.522 -1.4452 -1.3021  1.8899
   30DOPC  C218 4090   9.786   2.345   4.442 -0.0883 -0.5045 -0.1034
   30DOPC  H18R 4091   9.692   2.377   4.393  0.3358 -1.1187 -1.3475
   30DOPC  H18S 4092   9.744   2.315   4.541 -0.5085  0.9890  0.1848
   30DOPC  H18T 4093   9.832   2.263   4.382  1.1293  0.5284 -0.6158
   30DOPC   C33 4094   9.591   3.354   5.635 -0.5569 -0.1965 -0.1102
   30DOPC   H3X 4095   9.507   3.392   5.696 -1.5732  0.3962 -1.8052
   30DOPC   H3Y 4096   9.575   3.244   5.640  0.6137 -0.3418  0.8599
   30DOPC   C34 4097   9.588   3.403   5.488  0.0678 -0.5186  0.0131
   30DOPC   H4X 4098   9.664   3.350   5.427  0.0001 -1.7884  0.9989
   30DOPC   H4Y 4099   9.624   3.508   5.485 -0.6804 -0.1953  1.5471
   30DOPC   C35 4100   9.459   3.370   5.409 -0.4420 -0.3495 -0.2617
   30DOPC   H5X 4101   9.386   3.435   5.460  1.1590 -0.0287  1.7209
   30DOPC   H5Y 4102   9.430   3.263   5.421  0.1899 -0.3402  1.6903
   30DOPC   C36 4103   9.462   3.411   5.259  0.0218  0.1316  0.2872
   30DOPC   H6X 4104   9.361   3.395   5.218  0.4182 -1.5247 -0.1290
   30DOPC   H6Y 4105   9.486   3.519   5.252  0.7913  0.0113  0.8690
   30DOPC   C37 4106   9.570   3.336   5.169  0.9174 -0.3456 -0.2096
   30DOPC   H7X 4107   9.666   3.340   5.225  0.0009  2.1047  1.3272
   30DOPC   H7Y 4108   9.531   3.232   5.161  1.8588 -0.8771  1.6738
   30DOPC   C38 4109   9.578   3.413   5.039  0.7019  0.3770 -0.3699
   30DOPC   H8X 4110   9.613   3.518   5.053  4.1699 -0.6050 -0.9169
   30DOPC   H8Y 4111   9.476   3.430   4.997 -0.0073  1.0082  1.4550
   30DOPC   C39 4112   9.667   3.339   4.940  0.5448 -0.0946 -0.2550
   30DOPC   H9X 4113   9.775   3.358   4.950  0.6678 -1.2216  0.6903
   30DOPC  C310 4114   9.627   3.254   4.845  0.5318 -0.3510  0.0432
   30DOPC  H10X 4115   9.697   3.191   4.790 -1.9875 -2.0636 -1.4153
   30DOPC  C311 4116   9.488   3.202   4.805 -0.4167 -0.2744  0.2655
   30DOPC  H11X 4117   9.410   3.271   4.844 -0.8534 -1.8009  2.2484
   30DOPC  H11Y 4118   9.463   3.107   4.857 -1.1592  0.3418  1.0676
   30DOPC  C312 4119   9.486   3.179   4.652  1.0355 -0.6042  0.0596
   30DOPC  H12X 4120   9.519   3.277   4.609 -1.6679  0.7245  0.8053
   30DOPC  H12Y 4121   9.382   3.166   4.618  0.7593  0.2913  0.5206
   30DOPC  C313 4122   9.569   3.057   4.590  0.5383 -0.0961 -0.5915
   30DOPC  H13X 4123   9.669   3.050   4.638 -1.1309 -0.8757  3.1535
   30DOPC  H13Y 4124   9.526   2.965   4.635  1.2924 -1.1814 -2.0452
   30DOPC  C314 4125   9.565   3.047   4.448 -0.7655  0.2136  1.0196
   30DOPC  H14X 4126   9.459   3.041   4.416 -0.6346  1.6574  0.2204
   30DOPC  H14Y 4127   9.608   3.139   4.403 -2.2045  0.4497  0.0640
   30DOPC  C315 4128   9.629   2.915   4.395 -0.1181  0.2289 -0.1434
   30DOPC  H15X 4129   9.552   2.836   4.408  0.1560 -0.1800 -0.9602
   30DOPC  H15Y 4130   9.728   2.900   4.443  0.3272 -2.3710 -1.7171
   30DOPC  C316 4131   9.642   2.923   4.233 -0.0708 -0.6907 -0.6198
   30DOPC  H16X 4132   9.550   2.962   4.184  0.6399  0.9916 -0.6924
   30DOPC  H16Y 4133   9.726   2.994   4.220 -0.1072 -0.5306 -0.0275
   30DOPC  C317 4134   9.687   2.788   4.176  0.0689 -0.2728  0.2422
   30DOPC  H17X 4135   9.728   2.809   4.075 -1.7581  2.8546  0.0256
   30DOPC  H17Y 4136   9.768   2.747   4.242  0.9815 -1.0912 -1.3167
   30DOPC  C318 4137   9.575   2.685   4.157 -0.3051  0.5355 -0.3770
   30DOPC  H18X 4138   9.621   2.592   4.114 -1.7952 -1.2344  1.6735
   30DOPC  H18Y 4139   9.533   2.655   4.255  1.4695 -1.1829 -0.0667
   30DOPC  H18Z 4140   9.494   2.719   4.089  0.2853  2.0826 -0.3427
   31DOPC     N 4141   9.661   5.415   5.718 -0.1023  0.4551  0.1278
   31DOPC   C12 4142   9.720   5.529   5.795  0.6564  0.2337 -0.1380
   31DOPC  H12A 4143   9.694   5.522   5.900 -0.5956  2.0103 -0.2854
   31DOPC  H12B 4144   9.669   5.621   5.771  1.1760  0.5919  0.1042
   31DOPC   C13 4145   9.728   5.281   5.754  0.0887 -0.2041 -0.0150
   31DOPC  H13A 4146   9.831   5.289   5.720 -0.4599 -1.7123 -2.2821
   31DOPC  H13B 4147   9.722   5.258   5.859 -0.8401 -1.7645 -0.3752
   31DOPC  H13C 4148   9.664   5.206   5.708 -1.7911  1.1431  0.3002
   31DOPC   C14 4149   9.669   5.445   5.572 -0.3955 -0.7522 -0.2319
   31DOPC  H14A 4150   9.670   5.357   5.509 -1.3905  0.9796 -2.8506
   31DOPC  H14B 4151   9.595   5.519   5.546  0.1850  0.6727  1.8542
   31DOPC  H14C 4152   9.764   5.497   5.559  0.7201 -2.4433  0.8138
   31DOPC   C15 4153   9.517   5.404   5.751  0.4377  0.0860 -0.8134
   31DOPC  H15A 4154   9.493   5.345   5.838 -0.4773  0.9976 -0.4272
   31DOPC  H15B 4155   9.466   5.355   5.670  0.2539  1.0838 -1.3172
   31DOPC  H15C 4156   9.470   5.501   5.755 -0.9440 -0.5851  1.6969
   31DOPC   C11 4157   9.874   5.556   5.785 -0.1420  0.0978  0.1296
   31DOPC  H11A 4158   9.888   5.646   5.848 -0.8438 -0.0287  0.4810
   31DOPC  H11B 4159   9.919   5.463   5.825 -1.4278 -1.3738 -1.6651
   31DOPC     P 4160  10.077   5.541   5.609  0.0965  0.1473  0.2686
   31DOPC   O13 4161  10.084   5.394   5.578 -0.0747  0.1156  0.0087
   31DOPC   O14 4162  10.184   5.590   5.703  0.1456 -1.0614  0.2063
   31DOPC   O12 4163   9.931   5.577   5.663 -0.1066 -0.2716  0.3087
   31DOPC   O11 4164  10.091   5.627   5.474  0.3311  0.3254 -0.1822
   31DOPC    C1 4165  10.026   5.759   5.465  0.2836  0.3097 -0.0652
   31DOPC    HA 4166  10.092   5.820   5.401  1.5010 -1.8101 -0.9514
   31DOPC    HB 4167  10.038   5.803   5.566  1.7824 -2.1582  0.9342
   31DOPC    C2 4168   9.874   5.756   5.410  0.7942  0.2841 -0.6103
   31DOPC    HS 4169   9.816   5.687   5.475  2.3449  0.2029  0.7556
   31DOPC   O21 4170   9.880   5.703   5.282  0.8626  0.2326  0.0849
   31DOPC   C21 4171   9.763   5.653   5.229  0.3416 -0.1234 -0.3094
   31DOPC   O22 4172   9.657   5.641   5.292  0.1039 -0.1862 -0.1078
   31DOPC   C22 4173   9.773   5.606   5.083 -0.6285 -0.2568  0.1223
   31DOPC   H2R 4174   9.676   5.560   5.054 -1.0723  0.4622  0.4374
   31DOPC   H2S 4175   9.846   5.522   5.080  2.4183  2.2517 -1.6405
   31DOPC    C3 4176   9.793   5.894   5.424  0.2725  0.3754  0.4980
   31DOPC    HX 4177   9.785   5.915   5.533 -0.6396 -1.0153  0.7220
   31DOPC    HY 4178   9.688   5.868   5.399 -0.0069  3.3156 -1.9894
   31DOPC   O31 4179   9.830   6.015   5.347 -0.2002 -0.3549  0.0637
   31DOPC   C31 4180   9.739   6.110   5.347 -0.1170  0.4703 -0.2888
   31DOPC   O32 4181   9.623   6.098   5.378  0.1230  0.0056  0.7792
   31DOPC   C32 4182   9.788   6.227   5.262 -0.0804 -0.3957 -0.9345
   31DOPC   H2X 4183   9.741   6.319   5.303 -1.1280 -1.1313 -0.4496
   31DOPC   H2Y 4184   9.897   6.250   5.271 -0.2203 -0.5960  2.9178
   31DOPC   C23 4185   9.819   5.725   4.995 -0.0160  0.0358 -0.0631
   31DOPC   H3R 4186   9.909   5.778   5.033 -0.8844 -0.4940  3.0040
   31DOPC   H3S 4187   9.745   5.804   5.019  0.0710 -0.3662  1.6714
   31DOPC   C24 4188   9.823   5.695   4.845 -0.3623  0.8772  0.2415
   31DOPC   H4R 4189   9.837   5.789   4.787  0.9553  0.9366  0.6063
   31DOPC   H4S 4190   9.724   5.655   4.815 -0.2984  0.7197  0.2391
   31DOPC   C25 4191   9.942   5.604   4.800  0.6545 -0.1306  0.3379
   31DOPC   H5R 4192   9.930   5.511   4.858  2.4581  0.5139  1.8476
   31DOPC   H5S 4193  10.045   5.640   4.823  0.1691  0.2661  1.9436
   31DOPC   C26 4194   9.928   5.558   4.650  0.4802 -0.3039 -0.5953
   31DOPC   H6R 4195   9.901   5.641   4.582 -0.9043 -1.1759 -1.1516
   31DOPC   H6S 4196   9.835   5.500   4.629  0.2138 -0.2572  0.3967
   31DOPC   C27 4197  10.051   5.479   4.600  0.9745  0.0639 -0.1282
   31DOPC   H7R 4198  10.073   5.384   4.654  1.5925 -0.9058 -1.9945
   31DOPC   H7S 4199  10.136   5.550   4.605  0.5079  0.6749 -0.7261
   31DOPC   C28 4200  10.027   5.431   4.456 -0.0826  0.0147  0.1128
   31DOPC   H8R 4201   9.963   5.508   4.407  2.0471  2.5437  1.0627
   31DOPC   H8S 4202   9.968   5.337   4.457  0.2805 -0.2430  2.1744
   31DOPC   C29 4203  10.151   5.410   4.369 -0.6704 -0.1084  0.4693
   31DOPC   H9R 4204  10.236   5.472   4.401  0.7317 -0.5142 -2.1238
   31DOPC  C210 4205  10.148   5.342   4.251  0.0026 -0.1758  0.0922
   31DOPC  H10R 4206  10.236   5.337   4.186 -0.3951 -0.6997 -0.4264
   31DOPC  C211 4207  10.031   5.273   4.191  0.7479  0.4603 -0.2199
   31DOPC  H11R 4208   9.954   5.351   4.180  1.7123  1.4103 -0.4311
   31DOPC  H11S 4209   9.993   5.193   4.258  1.8292 -1.5456 -1.8622
   31DOPC  C212 4210  10.052   5.211   4.050  0.6162  0.4338 -0.6908
   31DOPC  H12R 4211  10.123   5.272   3.989  2.9780 -1.0483  0.4050
   31DOPC  H12S 4212   9.947   5.193   4.020  0.8730  0.1891 -1.4551
   31DOPC  C213 4213  10.115   5.069   4.063 -0.3623  0.1823 -0.9982
   31DOPC  H13R 4214  10.044   5.015   4.129 -0.5829 -0.2524 -1.5923
   31DOPC  H13S 4215  10.223   5.076   4.088 -0.7864  1.2099  0.8042
   31DOPC  C214 4216  10.116   5.003   3.922 -0.0020 -0.3591 -0.2944
   31DOPC  H14R 4217  10.147   5.077   3.846 -0.4070  0.1148 -0.0093
   31DOPC  H14S 4218  10.014   4.965   3.896  0.2132 -1.6111  0.5905
   31DOPC  C215 4219  10.202   4.880   3.916  0.4336  0.6660  0.2149
   31DOPC  H15R 4220  10.157   4.790   3.962 -0.1726  1.0307  0.3511
   31DOPC  H15S 4221  10.306   4.899   3.951  0.2329 -0.6073  1.5655
   31DOPC  C216 4222  10.205   4.831   3.769  0.1775  1.4086 -0.4876
   31DOPC  H16R 4223  10.265   4.897   3.704  0.0305  0.5806 -1.4932
   31DOPC  H16S 4224  10.102   4.844   3.728  0.2145  0.5911 -0.8644
   31DOPC  C217 4225  10.239   4.679   3.752 -0.3612 -0.2532 -0.9177
   31DOPC  H17R 4226  10.155   4.620   3.794  0.4123 -1.6317 -1.2497
   31DOPC  H17S 4227  10.327   4.656   3.816 -1.1069 -0.8286 -0.0509
   31DOPC  C218 4228  10.259   4.648   3.605 -0.0723  0.6648 -0.0457
   31DOPC  H18R 4229  10.301   4.545   3.596 -1.5009  0.0860 -0.5492
   31DOPC  H18S 4230  10.336   4.715   3.562 -0.3625  0.6397 -0.6197
   31DOPC  H18T 4231  10.169   4.648   3.539 -0.6269  0.3523  0.6956
   31DOPC   C33 4232   9.744   6.208   5.115 -0.0181 -0.7654 -0.7073
   31DOPC   H3X 4233   9.750   6.311   5.073  0.4376  0.7618  2.7061
   31DOPC   H3Y 4234   9.636   6.183   5.109 -1.0088  2.5481  0.8349
   31DOPC   C34 4235   9.839   6.104   5.044  0.1004 -0.0298 -0.0295
   31DOPC   H4X 4236   9.814   6.000   5.075  0.0543  0.2170  0.7941
   31DOPC   H4Y 4237   9.946   6.119   5.072  0.2117 -1.9548  0.6991
   31DOPC   C35 4238   9.812   6.121   4.890 -0.1817 -0.4589 -0.8823
   31DOPC   H5X 4239   9.783   6.227   4.870 -0.8879 -0.1548  1.4803
   31DOPC   H5Y 4240   9.720   6.066   4.861 -0.9663  0.2602  0.1486
   31DOPC   C36 4241   9.933   6.083   4.802 -0.2110  0.3446  0.5427
   31DOPC   H6X 4242  10.020   6.141   4.840  0.7862 -2.4986  2.9435
   31DOPC   H6Y 4243   9.951   5.975   4.818  1.6619  0.3970 -0.8337
   31DOPC   C37 4244   9.896   6.112   4.650 -0.7022 -0.0941  0.6223
   31DOPC   H7X 4245   9.796   6.067   4.635 -1.0969  1.1442 -0.7160
   31DOPC   H7Y 4246   9.870   6.220   4.645 -1.0753 -0.1703  0.8877
   31DOPC   C38 4247  10.003   6.082   4.545  0.5630  0.3751 -0.1611
   31DOPC   H8X 4248  10.108   6.106   4.575  0.9733 -0.1905 -1.0834
   31DOPC   H8Y 4249   9.989   6.141   4.452  2.1834 -1.6220 -1.7934
   31DOPC   C39 4250   9.994   5.935   4.510 -1.1175 -0.2393  0.1548
   31DOPC   H9X 4251   9.987   5.867   4.596  1.7075 -2.7742 -1.4297
   31DOPC  C310 4252   9.992   5.878   4.392  0.7273  0.1093  0.1080
   31DOPC  H10X 4253   9.979   5.769   4.385 -2.1209  0.4075 -0.6658
   31DOPC  C311 4254  10.018   5.929   4.249 -0.4470 -0.4057 -0.5254
   31DOPC  H11X 4255  10.097   5.876   4.192 -1.3262 -1.3991 -0.8594
   31DOPC  H11Y 4256  10.065   6.029   4.247 -2.2285  0.4617 -0.6802
   31DOPC  C312 4257   9.887   5.937   4.172  0.1781  0.3556 -0.7005
   31DOPC  H12X 4258   9.834   5.841   4.193  0.4565  0.1959 -0.7316
   31DOPC  H12Y 4259   9.903   5.934   4.062 -2.6721  2.7004 -1.3014
   31DOPC  C313 4260   9.790   6.048   4.200  0.3937 -0.1581  0.5471
   31DOPC  H13X 4261   9.784   6.053   4.311 -0.8677 -1.6556  0.5729
   31DOPC  H13Y 4262   9.836   6.141   4.160 -1.8425  1.4712  1.5583
   31DOPC  C314 4263   9.656   6.025   4.125 -0.7550 -0.2757  0.1233
   31DOPC  H14X 4264   9.694   5.998   4.024 -1.9631 -1.5087 -0.0305
   31DOPC  H14Y 4265   9.607   5.938   4.174 -0.1224  0.1918  1.6566
   31DOPC  C315 4266   9.554   6.140   4.127  0.0858  0.0583  0.5282
   31DOPC  H15X 4267   9.594   6.233   4.081 -0.2495 -0.4202 -0.7488
   31DOPC  H15Y 4268   9.535   6.173   4.232  0.4496  1.6040  0.1408
   31DOPC  C316 4269   9.428   6.097   4.053  0.1918  0.1096  0.5598
   31DOPC  H16X 4270   9.448   6.024   3.972 -4.6540 -0.8550 -0.0897
   31DOPC  H16Y 4271   9.363   6.047   4.128 -0.7505 -0.8490 -0.8371
   31DOPC  C317 4272   9.351   6.216   3.989  0.4013  0.5809 -0.6544
   31DOPC  H17X 4273   9.299   6.271   4.071 -1.3349  0.3652 -1.5707
   31DOPC  H17Y 4274   9.434   6.278   3.949  2.1998  0.6015  2.6826
   31DOPC  C318 4275   9.244   6.163   3.891 -1.1442 -1.2163 -0.2489
   31DOPC  H18X 4276   9.168   6.103   3.944 -2.1860  0.7807  0.6563
   31DOPC  H18Y 4277   9.211   6.258   3.843  2.1637 -0.3930 -1.2279
   31DOPC  H18Z 4278   9.297   6.100   3.817  0.2256 -0.5030  0.0750
   32DOPC     N 4279   4.973  11.128   6.510  0.3108 -0.1256  0.3271
   32DOPC   C12 4280   4.963  10.973   6.541  0.2185 -0.4763 -0.0899
   32DOPC  H12A 4281   4.861  10.942   6.520 -0.3522  1.6463 -0.7692
   32DOPC  H12B 4282   4.981  10.964   6.647  0.0032 -0.4564 -0.0502
   32DOPC   C13 4283   4.913  11.155   6.364 -0.1641  0.0754  0.2532
   32DOPC  H13A 4284   4.811  11.120   6.361 -0.0015 -0.6228  1.7852
   32DOPC  H13B 4285   4.915  11.259   6.335 -0.6521  0.6402  2.1229
   32DOPC  H13C 4286   4.973  11.098   6.295  0.8194 -1.4959  2.3306
   32DOPC   C14 4287   5.113  11.181   6.515  0.1412 -0.3045 -0.3215
   32DOPC  H14A 4288   5.179  11.110   6.466  0.1624 -0.7383  0.3310
   32DOPC  H14B 4289   5.120  11.276   6.462  2.1586 -0.1951  0.0582
   32DOPC  H14C 4290   5.157  11.183   6.613  1.3759 -3.9711 -0.6486
   32DOPC   C15 4291   4.894  11.203   6.612  0.4491  0.0734 -0.3035
   32DOPC  H15A 4292   4.786  11.193   6.605  0.0389  2.3128  1.6021
   32DOPC  H15B 4293   4.920  11.307   6.600 -3.4459  1.0140 -2.2892
   32DOPC  H15C 4294   4.914  11.180   6.715  0.1097 -1.4106 -0.5519
   32DOPC   C11 4295   5.055  10.872   6.468 -0.4800  0.2008  0.2619
   32DOPC  H11A 4296   5.024  10.776   6.513 -0.5357 -0.0045 -0.2078
   32DOPC  H11B 4297   5.025  10.871   6.361 -0.3693 -1.0344  0.2291
   32DOPC     P 4298   5.311  10.814   6.428  0.2018 -0.3101  0.2036
   32DOPC   O13 4299   5.287  10.673   6.469  0.0100  0.5344  0.0017
   32DOPC   O14 4300   5.439  10.874   6.464  0.3464  0.3708  0.6456
   32DOPC   O12 4301   5.190  10.905   6.486 -0.5307 -0.1031  0.4693
   32DOPC   O11 4302   5.282  10.839   6.278 -0.1433  0.2889 -0.3925
   32DOPC    C1 4303   5.358  10.772   6.179 -0.8121  1.0027 -0.1574
   32DOPC    HA 4304   5.364  10.667   6.215 -2.7608  0.6425 -0.7621
   32DOPC    HB 4305   5.458  10.821   6.168 -0.3812 -0.2535 -2.1220
   32DOPC    C2 4306   5.287  10.768   6.041  0.0172 -0.0646 -0.1571
   32DOPC    HS 4307   5.333  10.678   5.995  0.5505  1.2936 -2.4276
   32DOPC   O21 4308   5.310  10.886   5.956 -0.8747 -0.4100 -0.3497
   32DOPC   C21 4309   5.429  10.886   5.910 -0.1076  0.2175  0.2281
   32DOPC   O22 4310   5.513  10.796   5.905 -0.4045  0.9066  0.6440
   32DOPC   C22 4311   5.479  11.033   5.876 -0.2285  0.0979  0.3740
   32DOPC   H2R 4312   5.499  11.080   5.975  0.1887 -1.2084  0.9282
   32DOPC   H2S 4313   5.389  11.071   5.824 -0.9651 -1.5456  0.3873
   32DOPC    C3 4314   5.137  10.738   6.052 -0.3870 -0.3271 -0.3157
   32DOPC    HX 4315   5.102  10.815   6.123  3.6008  2.1123 -0.6641
   32DOPC    HY 4316   5.124  10.642   6.106  0.2736 -0.1980  0.0819
   32DOPC   O31 4317   5.069  10.747   5.924  0.5200 -0.4320  0.4304
   32DOPC   C31 4318   5.088  10.641   5.847  0.1251 -0.2928 -0.0027
   32DOPC   O32 4319   5.171  10.557   5.870  1.0085 -0.1476 -0.1734
   32DOPC   C32 4320   5.011  10.663   5.708 -0.8786 -0.7192  0.0331
   32DOPC   H2X 4321   4.905  10.696   5.723 -0.8690 -0.1450 -1.0279
   32DOPC   H2Y 4322   5.063  10.743   5.651  1.0579 -1.1973  1.0536
   32DOPC   C23 4323   5.599  11.040   5.776  0.3116  0.2814 -0.3103
   32DOPC   H3R 4324   5.572  10.980   5.686  0.1962  1.4449 -1.0765
   32DOPC   H3S 4325   5.692  10.997   5.819  1.8122  1.2870 -2.3885
   32DOPC   C24 4326   5.620  11.186   5.721 -0.3584 -0.1112  0.2307
   32DOPC   H4R 4327   5.668  11.256   5.793  0.9337  0.8892 -1.5220
   32DOPC   H4S 4328   5.523  11.236   5.705 -0.9169 -0.8261  1.2912
   32DOPC   C25 4329   5.718  11.191   5.597  0.0962  0.2953  0.9692
   32DOPC   H5R 4330   5.680  11.138   5.507  2.1541  1.3529 -0.6060
   32DOPC   H5S 4331   5.816  11.145   5.623  0.7130  1.8978  1.5824
   32DOPC   C26 4332   5.752  11.338   5.559 -0.2584  0.5288 -0.7764
   32DOPC   H6R 4333   5.800  11.381   5.649 -1.6642 -0.9516  0.7341
   32DOPC   H6S 4334   5.664  11.402   5.538 -0.8105  0.2184  0.5176
   32DOPC   C27 4335   5.839  11.328   5.436  0.6941  0.3282 -0.6247
   32DOPC   H7R 4336   5.776  11.281   5.358  0.0570  1.1504 -0.6238
   32DOPC   H7S 4337   5.927  11.262   5.449 -0.5210 -1.4614 -1.1413
   32DOPC   C28 4338   5.875  11.468   5.380  0.5198 -0.1112 -0.1151
   32DOPC   H8R 4339   5.783  11.530   5.372  0.2968 -0.3432  0.6497
   32DOPC   H8S 4340   5.914  11.456   5.276 -0.3794  1.1073 -0.6236
   32DOPC   C29 4341   5.974  11.537   5.474  0.3320 -0.0118  0.4806
   32DOPC   H9R 4342   5.925  11.579   5.563 -2.3156  0.4890 -1.1026
   32DOPC  C210 4343   6.106  11.568   5.456  0.6184  0.1338 -0.3398
   32DOPC  H10R 4344   6.164  11.608   5.540  0.6166  1.2621 -0.8543
   32DOPC  C211 4345   6.190  11.531   5.342 -0.3028 -0.1372  0.9117
   32DOPC  H11R 4346   6.140  11.445   5.293 -2.1695  0.6515  1.3271
   32DOPC  H11S 4347   6.284  11.494   5.389  0.0733 -0.2546  0.0799
   32DOPC  C212 4348   6.228  11.648   5.245  1.2314 -0.4872  0.0621
   32DOPC  H12R 4349   6.272  11.739   5.292  0.4169 -0.2565  0.3891
   32DOPC  H12S 4350   6.125  11.673   5.212  1.4625 -0.0690 -0.3513
   32DOPC  C213 4351   6.319  11.597   5.127  0.0625 -0.1323  0.0922
   32DOPC  H13R 4352   6.258  11.520   5.076 -0.0415 -0.6034  0.9110
   32DOPC  H13S 4353   6.402  11.543   5.177  1.0331  0.4760 -0.8157
   32DOPC  C214 4354   6.361  11.717   5.030 -0.3699 -0.6285 -0.4672
   32DOPC  H14R 4355   6.431  11.779   5.090  1.0622 -1.4792 -1.2100
   32DOPC  H14S 4356   6.267  11.774   5.013 -0.5897  0.1100  2.6383
   32DOPC  C215 4357   6.438  11.678   4.903 -0.2358 -0.4129  0.2648
   32DOPC  H15R 4358   6.544  11.656   4.926 -0.0912  1.7024  1.9304
   32DOPC  H15S 4359   6.434  11.764   4.832 -1.0091 -1.6643 -1.2554
   32DOPC  C216 4360   6.386  11.556   4.836 -0.6371 -0.0040  0.2663
   32DOPC  H16R 4361   6.281  11.574   4.803 -0.3860 -0.5938 -0.9330
   32DOPC  H16S 4362   6.387  11.470   4.906  3.5789  0.7017  1.2915
   32DOPC  C217 4363   6.452  11.526   4.700 -0.4067 -0.9524 -0.4705
   32DOPC  H17R 4364   6.437  11.421   4.669  0.2272 -1.1173 -0.2283
   32DOPC  H17S 4365   6.562  11.536   4.702 -0.2509 -2.5442 -0.2959
   32DOPC  C218 4366   6.401  11.613   4.586  0.0972  0.1092 -0.0770
   32DOPC  H18R 4367   6.291  11.595   4.580  0.0225  0.4668  0.1316
   32DOPC  H18S 4368   6.448  11.596   4.488  1.4290  1.9263  0.1982
   32DOPC  H18T 4369   6.428  11.719   4.607 -2.0366  0.9945 -1.4542
   32DOPC   C33 4370   5.012  10.536   5.618 -0.1588  0.0547 -0.3747
   32DOPC   H3X 4371   4.912  10.491   5.638 -0.6548  2.0269  2.3080
   32DOPC   H3Y 4372   5.090  10.461   5.643 -0.5031  0.3527  1.8385
   32DOPC   C34 4373   5.024  10.573   5.470 -0.1229 -0.3817  0.6128
   32DOPC   H4X 4374   5.123  10.622   5.460 -1.5584  2.4314 -1.3987
   32DOPC   H4Y 4375   4.959  10.662   5.453  0.9921  0.2630 -0.4558
   32DOPC   C35 4376   5.008  10.459   5.371  0.8727  0.5329  0.0618
   32DOPC   H5X 4377   4.907  10.413   5.370  0.3563  1.6280 -0.5983
   32DOPC   H5Y 4378   5.064  10.370   5.406  0.0791  0.9792  2.7087
   32DOPC   C36 4379   5.045  10.497   5.224  0.1795 -0.0379 -0.1585
   32DOPC   H6X 4380   5.019  10.418   5.150  2.3905 -0.4241 -0.5883
   32DOPC   H6Y 4381   4.984  10.584   5.188 -0.0910  0.4685  1.4424
   32DOPC   C37 4382   5.185  10.554   5.212  0.3175  0.5238 -0.2594
   32DOPC   H7X 4383   5.201  10.642   5.277  0.4210 -0.7909  1.5784
   32DOPC   H7Y 4384   5.252  10.483   5.266 -0.4581 -0.6869 -0.8329
   32DOPC   C38 4385   5.242  10.584   5.078 -0.4947  0.2847  0.7546
   32DOPC   H8X 4386   5.348  10.609   5.099  0.3586 -1.5252 -1.0066
   32DOPC   H8Y 4387   5.193  10.676   5.040  1.3817  0.7638 -0.6462
   32DOPC   C39 4388   5.211  10.474   4.969 -0.4939 -0.4953  0.0007
   32DOPC   H9X 4389   5.109  10.433   4.963 -0.1438 -1.2195 -1.5379
   32DOPC  C310 4390   5.295  10.435   4.872 -0.3616  0.1941  0.1191
   32DOPC  H10X 4391   5.257  10.363   4.797 -0.3820  0.0073  0.3083
   32DOPC  C311 4392   5.429  10.501   4.852  0.0027  0.0528 -0.3211
   32DOPC  H11X 4393   5.494  10.432   4.795 -0.1086 -0.4795  0.1787
   32DOPC  H11Y 4394   5.476  10.508   4.953  0.7024  0.9235 -0.7009
   32DOPC  C312 4395   5.426  10.637   4.780  0.0473  0.0126 -0.0499
   32DOPC  H12X 4396   5.362  10.705   4.840 -0.4844 -1.5375  1.2143
   32DOPC  H12Y 4397   5.372  10.619   4.684 -0.7655 -1.4633  0.6492
   32DOPC  C313 4398   5.568  10.694   4.765  0.9004  0.4002 -0.4017
   32DOPC  H13X 4399   5.563  10.803   4.742  2.1760  0.3898 -0.7906
   32DOPC  H13Y 4400   5.624  10.667   4.857 -1.4090 -0.0435  0.9597
   32DOPC  C314 4401   5.645  10.633   4.647 -0.0688  0.5405  0.2003
   32DOPC  H14X 4402   5.655  10.523   4.646  3.6730  0.7462 -0.3448
   32DOPC  H14Y 4403   5.592  10.657   4.552  1.4727  0.8653 -0.6199
   32DOPC  C315 4404   5.792  10.673   4.644  0.0492 -0.5886  0.1367
   32DOPC  H15X 4405   5.854  10.601   4.586 -0.7629  0.3670 -2.0348
   32DOPC  H15Y 4406   5.832  10.665   4.747 -2.8842 -1.3321  1.3293
   32DOPC  C316 4407   5.823  10.812   4.589  0.1944 -0.7099 -0.4024
   32DOPC  H16X 4408   5.739  10.882   4.605  0.2222 -0.6175 -0.6546
   32DOPC  H16Y 4409   5.905  10.859   4.647 -0.1978 -0.2378 -0.2255
   32DOPC  C317 4410   5.866  10.813   4.437 -0.9771 -0.2573  0.4114
   32DOPC  H17X 4411   5.862  10.918   4.403  1.0865 -0.6123 -1.1410
   32DOPC  H17Y 4412   5.972  10.783   4.420 -1.0347  0.3153 -1.1303
   32DOPC  C318 4413   5.767  10.738   4.348  0.8803  0.2636  0.3778
   32DOPC  H18X 4414   5.662  10.752   4.380  0.6498 -1.4783  0.5200
   32DOPC  H18Y 4415   5.781  10.767   4.242  1.0722  1.6672  0.7722
   32DOPC  H18Z 4416   5.773  10.627   4.354 -1.8083  0.1068  1.4233
   33DOPC     N 4417   5.143   9.143   6.150  0.1119 -0.9265 -0.8013
   33DOPC   C12 4418   5.245   9.082   6.058  0.5154 -0.1038  0.2785
   33DOPC  H12A 4419   5.306   9.014   6.116  1.5543  2.0117  1.8239
   33DOPC  H12B 4420   5.310   9.163   6.030 -2.0767  2.2740  0.6857
   33DOPC   C13 4421   5.089   9.048   6.246  0.2649 -0.2392 -0.0482
   33DOPC  H13A 4422   5.161   9.018   6.320 -0.0656 -4.4731 -1.1845
   33DOPC  H13B 4423   5.007   9.097   6.297  0.0760  0.0140 -0.5832
   33DOPC  H13C 4424   5.046   8.956   6.209 -1.5874  0.1562  0.9948
   33DOPC   C14 4425   5.037   9.223   6.073  0.3433 -0.2033  0.2232
   33DOPC  H14A 4426   4.980   9.168   6.001  2.7968 -0.0331 -2.0061
   33DOPC  H14B 4427   4.964   9.268   6.139 -0.5816 -1.3120 -0.0226
   33DOPC  H14C 4428   5.086   9.303   6.019  1.0800  0.1250  1.3217
   33DOPC   C15 4429   5.225   9.247   6.224  0.0537  0.0700 -0.1693
   33DOPC  H15A 4430   5.285   9.306   6.157  2.4354  0.1185  1.8737
   33DOPC  H15B 4431   5.296   9.207   6.294  0.5437 -0.3419 -0.8853
   33DOPC  H15C 4432   5.160   9.310   6.283 -0.8332 -0.5544 -0.4559
   33DOPC   C11 4433   5.199   8.999   5.931 -0.1722  0.0180  0.0998
   33DOPC  H11A 4434   5.138   9.062   5.863 -0.3952  0.3867  0.6344
   33DOPC  H11B 4435   5.290   8.972   5.874 -0.3978  3.7266 -2.3779
   33DOPC     P 4436   5.165   8.741   5.964  0.2283  0.2263 -0.0566
   33DOPC   O13 4437   5.056   8.650   6.008  0.6913 -0.6871 -0.1323
   33DOPC   O14 4438   5.291   8.711   6.030 -0.3260  0.1583 -0.2574
   33DOPC   O12 4439   5.118   8.893   5.977 -0.4988  0.2460  0.0489
   33DOPC   O11 4440   5.185   8.720   5.805 -0.3490 -0.7016 -0.4446
   33DOPC    C1 4441   5.097   8.773   5.712  1.1582 -0.0301  0.7608
   33DOPC    HA 4442   5.152   8.823   5.630  0.1808  2.1730  1.3378
   33DOPC    HB 4443   5.036   8.860   5.747  0.1369  0.3563 -1.7468
   33DOPC    C2 4444   5.004   8.667   5.646  0.9505 -0.0929  0.5636
   33DOPC    HS 4445   4.947   8.608   5.722  1.0863  0.9657  1.5186
   33DOPC   O21 4446   5.071   8.577   5.557 -0.0886 -0.3609 -0.8005
   33DOPC   C21 4447   5.018   8.456   5.551 -0.4216  0.5445  0.1571
   33DOPC   O22 4448   4.931   8.411   5.625  0.0995  0.2155 -0.2367
   33DOPC   C22 4449   5.104   8.370   5.447  0.0041  0.2890 -0.0569
   33DOPC   H2R 4450   5.204   8.353   5.490 -0.1581 -1.0350 -0.1407
   33DOPC   H2S 4451   5.119   8.437   5.360  0.0676  0.0173 -0.2581
   33DOPC    C3 4452   4.900   8.744   5.561  1.1205  0.2763  0.1992
   33DOPC    HX 4453   4.960   8.790   5.480  1.7815 -0.7205  0.1117
   33DOPC    HY 4454   4.853   8.824   5.624 -0.1460 -1.3185  1.3668
   33DOPC   O31 4455   4.799   8.657   5.497 -0.2100  0.1109  0.2230
   33DOPC   C31 4456   4.704   8.627   5.584 -0.0248  0.0346 -0.2963
   33DOPC   O32 4457   4.717   8.630   5.707  0.0760  0.4463 -0.0060
   33DOPC   C32 4458   4.581   8.574   5.520  0.3919 -0.0039 -0.3560
   33DOPC   H2X 4459   4.560   8.489   5.587  3.0423 -0.1148  0.4213
   33DOPC   H2Y 4460   4.507   8.656   5.531  1.0216  0.6241 -0.7102
   33DOPC   C23 4461   5.033   8.237   5.413  0.8484  0.6019 -1.1043
   33DOPC   H3R 4462   4.932   8.260   5.375  0.1069  0.1264  0.4955
   33DOPC   H3S 4463   5.019   8.175   5.504 -0.0095 -0.8311 -2.1880
   33DOPC   C24 4464   5.116   8.147   5.312  0.0792 -0.7698  0.2370
   33DOPC   H4R 4465   5.068   8.047   5.313  0.4852 -1.0229 -1.8329
   33DOPC   H4S 4466   5.222   8.143   5.344  0.9197 -0.2368 -2.2846
   33DOPC   C25 4467   5.111   8.195   5.163  0.5173 -0.3943  0.2837
   33DOPC   H5R 4468   5.145   8.300   5.144 -0.7637 -0.0708 -0.3116
   33DOPC   H5S 4469   5.005   8.189   5.132  0.0754 -0.9587  1.8307
   33DOPC   C26 4470   5.197   8.113   5.069  0.1776  0.0383  0.5749
   33DOPC   H6R 4471   5.180   8.005   5.087 -0.1632 -0.4704 -2.3402
   33DOPC   H6S 4472   5.305   8.131   5.087  0.6587 -1.2621 -0.7781
   33DOPC   C27 4473   5.167   8.148   4.925  0.2941 -0.1641  0.1146
   33DOPC   H7R 4474   5.190   8.257   4.916  1.8315 -0.5704 -1.5932
   33DOPC   H7S 4475   5.064   8.121   4.893  0.0834 -1.6154  1.9045
   33DOPC   C28 4476   5.262   8.080   4.823 -0.0604  0.2569  0.5401
   33DOPC   H8R 4477   5.257   7.969   4.829  0.9430  0.2239  0.8547
   33DOPC   H8S 4478   5.368   8.105   4.845  0.5061  0.3100 -1.9166
   33DOPC   C29 4479   5.240   8.121   4.678 -0.0605  0.3284  0.0884
   33DOPC   H9R 4480   5.273   8.224   4.657 -0.0534  0.0553 -1.3762
   33DOPC  C210 4481   5.217   8.035   4.568  0.0025 -0.2368 -0.2555
   33DOPC  H10R 4482   5.203   8.079   4.468  1.6354 -0.0077 -0.4111
   33DOPC  C211 4483   5.198   7.884   4.588  0.3293  0.6305  0.1749
   33DOPC  H11R 4484   5.131   7.866   4.674 -0.3117 -2.1982 -0.8121
   33DOPC  H11S 4485   5.297   7.836   4.603 -0.5736 -2.2467 -2.1813
   33DOPC  C212 4486   5.145   7.807   4.464  0.5585 -0.0140 -0.3334
   33DOPC  H12R 4487   5.151   7.698   4.485  1.0342  0.3364  1.5940
   33DOPC  H12S 4488   5.216   7.838   4.384 -0.6982  0.2365 -1.3711
   33DOPC  C213 4489   4.998   7.836   4.429  0.0592  0.8277  0.0429
   33DOPC  H13R 4490   4.987   7.946   4.413 -1.3147  0.8340  0.9274
   33DOPC  H13S 4491   4.923   7.803   4.503 -1.1707  0.9765 -1.0811
   33DOPC  C214 4492   4.967   7.762   4.293  0.5773  0.2186 -0.0503
   33DOPC  H14R 4493   4.966   7.651   4.304  1.3317  0.1604 -0.5076
   33DOPC  H14S 4494   5.053   7.786   4.228  1.3182 -1.7605  0.1216
   33DOPC  C215 4495   4.839   7.815   4.234 -0.0472  0.5830  0.4785
   33DOPC  H15R 4496   4.846   7.925   4.225  0.6172  0.4573 -0.7524
   33DOPC  H15S 4497   4.763   7.791   4.312  0.0425  0.6210  0.5770
   33DOPC  C216 4498   4.807   7.751   4.092 -0.1554 -0.0951 -0.7781
   33DOPC  H16R 4499   4.725   7.680   4.115 -1.4521  1.7314  0.5451
   33DOPC  H16S 4500   4.896   7.690   4.067  1.1536  1.9066 -1.1581
   33DOPC  C217 4501   4.784   7.852   3.975  0.3021  0.2239 -0.4723
   33DOPC  H17R 4502   4.879   7.903   3.949 -0.2337  0.3657 -2.3324
   33DOPC  H17S 4503   4.709   7.927   4.008 -0.5978 -1.1176  0.6222
   33DOPC  C218 4504   4.736   7.790   3.844 -0.4771 -0.0238  0.6055
   33DOPC  H18R 4505   4.650   7.723   3.866  0.4599 -0.6866  2.5184
   33DOPC  H18S 4506   4.809   7.724   3.792  0.0062  0.5733  0.5284
   33DOPC  H18T 4507   4.704   7.861   3.765  1.9151 -3.3424 -3.8551
   33DOPC   C33 4508   4.593   8.533   5.373  0.2648 -0.1432 -1.0202
   33DOPC   H3X 4509   4.639   8.616   5.315  0.6030  0.9586  0.7551
   33DOPC   H3Y 4510   4.493   8.504   5.336  0.3209  0.4979 -1.7027
   33DOPC   C34 4511   4.676   8.405   5.353 -0.2296 -0.1634 -0.4270
   33DOPC   H4X 4512   4.619   8.326   5.407 -0.5772  0.1435 -0.3431
   33DOPC   H4Y 4513   4.773   8.414   5.407 -1.0231 -0.3585  1.0996
   33DOPC   C35 4514   4.696   8.370   5.200 -1.3514 -0.2673  0.1754
   33DOPC   H5X 4515   4.786   8.304   5.195 -0.2733  1.0573  1.2589
   33DOPC   H5Y 4516   4.729   8.464   5.151 -1.9746 -0.0250  0.2192
   33DOPC   C36 4517   4.592   8.307   5.110 -0.8456  0.4495 -0.4825
   33DOPC   H6X 4518   4.583   8.200   5.140  2.1829  0.3052  0.2611
   33DOPC   H6Y 4519   4.502   8.369   5.128 -0.5545  0.9518 -0.7483
   33DOPC   C37 4520   4.634   8.297   4.964 -0.0945 -0.1608 -0.2004
   33DOPC   H7X 4521   4.543   8.258   4.913 -0.4429  1.7889 -1.1727
   33DOPC   H7Y 4522   4.645   8.399   4.921  3.2736 -0.3749 -0.0556
   33DOPC   C38 4523   4.764   8.209   4.934  0.5023 -0.5566 -0.0606
   33DOPC   H8X 4524   4.835   8.228   5.017  0.1556  4.7068 -0.6261
   33DOPC   H8Y 4525   4.810   8.264   4.850 -1.2770  0.2490 -0.5572
   33DOPC   C39 4526   4.739   8.064   4.911  0.5451  0.1989 -0.0269
   33DOPC   H9X 4527   4.739   7.993   4.995 -2.1161 -3.0695 -2.5167
   33DOPC  C310 4528   4.734   8.009   4.792 -0.4392  0.8774  0.0436
   33DOPC  H10X 4529   4.703   7.904   4.784 -0.5066  1.0028 -1.6706
   33DOPC  C311 4530   4.780   8.069   4.664  0.3688  0.7816 -1.1823
   33DOPC  H11X 4531   4.852   7.993   4.626  1.1760 -0.4559  2.3841
   33DOPC  H11Y 4532   4.829   8.168   4.671  0.4525  0.6732 -0.0159
   33DOPC  C312 4533   4.660   8.091   4.573  0.2262  0.6838 -0.6495
   33DOPC  H12X 4534   4.592   8.175   4.600  1.3827  1.5995 -0.5018
   33DOPC  H12Y 4535   4.614   7.990   4.569  3.1369 -0.8769  1.3121
   33DOPC  C313 4536   4.698   8.127   4.428  0.0395 -0.2423 -0.0347
   33DOPC  H13X 4537   4.749   8.226   4.424 -0.4743  0.0374  0.1472
   33DOPC  H13Y 4538   4.773   8.051   4.398  0.7373 -0.0219  1.0987
   33DOPC  C314 4539   4.582   8.138   4.321  0.4267  0.0479  0.0754
   33DOPC  H14X 4540   4.555   8.031   4.309 -0.3043  0.1814  0.4344
   33DOPC  H14Y 4541   4.494   8.193   4.363  0.1457 -0.9080  0.7677
   33DOPC  C315 4542   4.628   8.206   4.193  0.0863  0.6669 -0.3058
   33DOPC  H15X 4543   4.550   8.185   4.117 -0.8905 -0.5470  0.9781
   33DOPC  H15Y 4544   4.731   8.186   4.158  0.2631 -0.0933  0.6187
   33DOPC  C316 4545   4.625   8.357   4.209 -0.0875  0.6494 -0.4201
   33DOPC  H16X 4546   4.529   8.386   4.257 -0.6284  1.1768 -1.7378
   33DOPC  H16Y 4547   4.705   8.390   4.277 -0.2889 -0.3705  0.3317
   33DOPC  C317 4548   4.630   8.427   4.072 -0.2507  0.5339  0.3195
   33DOPC  H17X 4549   4.716   8.396   4.009 -0.4293  0.3479  0.1663
   33DOPC  H17Y 4550   4.542   8.396   4.011 -0.7692  1.1015  0.7626
   33DOPC  C318 4551   4.625   8.577   4.072 -1.0403  0.2505 -0.0525
   33DOPC  H18X 4552   4.719   8.622   4.111 -1.0832 -0.1918  0.5687
   33DOPC  H18Y 4553   4.610   8.611   3.967  0.5650  0.6639 -0.1722
   33DOPC  H18Z 4554   4.537   8.616   4.128 -0.4242  4.0854 -1.4646
   34DOPC     N 4555   2.150   0.452   6.364 -0.1552 -0.3626  0.1970
   34DOPC   C12 4556   2.141   0.599   6.342  0.9410 -0.4088 -0.5525
   34DOPC  H12A 4557   2.067   0.640   6.409  1.0963 -2.2389  0.7973
   34DOPC  H12B 4558   2.107   0.623   6.242 -1.3405  0.4092  0.3509
   34DOPC   C13 4559   2.252   0.389   6.270 -0.3467 -0.6906  0.3461
   34DOPC  H13A 4560   2.226   0.401   6.166 -2.1962 -0.4723  0.7877
   34DOPC  H13B 4561   2.345   0.442   6.283 -1.2605  0.3501  3.4619
   34DOPC  H13C 4562   2.269   0.285   6.293 -1.5662 -1.6693 -2.6762
   34DOPC   C14 4563   2.013   0.388   6.335  0.4618 -0.5135 -0.1941
   34DOPC  H14A 4564   1.939   0.425   6.404  1.9003  0.0624  1.0894
   34DOPC  H14B 4565   1.982   0.400   6.232  1.6887  1.8463 -0.3559
   34DOPC  H14C 4566   2.021   0.281   6.350  0.4693 -0.4461  0.3004
   34DOPC   C15 4567   2.187   0.427   6.507  0.8409  0.1912 -0.2869
   34DOPC  H15A 4568   2.169   0.322   6.524 -1.3593  0.4727 -0.5878
   34DOPC  H15B 4569   2.123   0.489   6.568  0.3653 -0.5706  0.0005
   34DOPC  H15C 4570   2.289   0.459   6.523  0.8952  0.1938 -0.6344
   34DOPC   C11 4571   2.273   0.683   6.374 -0.4071  0.1144  0.0384
   34DOPC  H11A 4572   2.258   0.788   6.342 -0.3099 -0.6292 -2.7228
   34DOPC  H11B 4573   2.301   0.669   6.481  0.0491 -3.0980 -0.3896
   34DOPC     P 4574   2.514   0.711   6.271 -0.1846  0.1951  0.3724
   34DOPC   O13 4575   2.575   0.754   6.395  0.2059 -0.2283 -0.6792
   34DOPC   O14 4576   2.467   0.814   6.180  0.8437 -0.4850  0.2253
   34DOPC   O12 4577   2.382   0.631   6.298 -0.2526  1.0447  0.2123
   34DOPC   O11 4578   2.621   0.605   6.210  0.5938  0.2234  0.5513
   34DOPC    C1 4579   2.582   0.544   6.091 -0.4140 -0.5074  0.1978
   34DOPC    HA 4580   2.478   0.569   6.058 -1.1005 -1.3451  1.6491
   34DOPC    HB 4581   2.592   0.434   6.102  1.4244 -0.2970  0.8899
   34DOPC    C2 4582   2.693   0.558   5.978  0.5042  0.1872 -0.3747
   34DOPC    HS 4583   2.795   0.538   6.019  0.2190 -1.7076 -0.4706
   34DOPC   O21 4584   2.681   0.685   5.922  0.8456 -0.7681  0.7405
   34DOPC   C21 4585   2.792   0.746   5.883 -0.0439  0.1682 -0.5169
   34DOPC   O22 4586   2.905   0.701   5.904  0.4211 -0.2813  0.4260
   34DOPC   C22 4587   2.759   0.861   5.791 -0.2590 -0.6692  0.4558
   34DOPC   H2R 4588   2.755   0.959   5.843  0.8408 -0.5150  0.2783
   34DOPC   H2S 4589   2.663   0.837   5.740  0.2619 -0.4738 -0.6514
   34DOPC    C3 4590   2.660   0.442   5.874  0.3533 -0.0969 -1.0170
   34DOPC    HX 4591   2.555   0.456   5.841  0.3696 -1.1986 -1.5565
   34DOPC    HY 4592   2.671   0.339   5.913 -4.8088 -2.0743 -3.8101
   34DOPC   O31 4593   2.730   0.466   5.753  0.5741  0.2692  0.6223
   34DOPC   C31 4594   2.851   0.421   5.740 -0.6121 -0.6476 -0.5128
   34DOPC   O32 4595   2.916   0.373   5.831 -0.3005  0.3882 -0.2426
   34DOPC   C32 4596   2.898   0.436   5.602 -0.0171  0.0374 -0.1127
   34DOPC   H2X 4597   2.981   0.509   5.612  0.4511 -0.6924  1.6564
   34DOPC   H2Y 4598   2.929   0.335   5.566 -4.1873 -1.1597 -0.8868
   34DOPC   C23 4599   2.865   0.873   5.679  0.7041 -0.0235  0.2855
   34DOPC   H3R 4600   2.870   0.771   5.635  0.6962  0.8201 -1.7723
   34DOPC   H3S 4601   2.962   0.899   5.727  0.6474 -0.1814  0.4859
   34DOPC   C24 4602   2.812   0.961   5.568 -0.5763  0.7310 -0.7047
   34DOPC   H4R 4603   2.811   1.066   5.604  0.7886  0.9241 -1.1541
   34DOPC   H4S 4604   2.712   0.925   5.536 -0.7962 -1.9610  2.4973
   34DOPC   C25 4605   2.894   0.974   5.438 -0.1652  0.0434 -0.0911
   34DOPC   H5R 4606   2.835   1.031   5.363  1.7610  1.7772 -0.3559
   34DOPC   H5S 4607   2.911   0.870   5.404 -0.9678 -0.1693  0.1333
   34DOPC   C26 4608   3.029   1.044   5.459 -0.1258 -0.3992  0.1253
   34DOPC   H6R 4609   3.074   1.024   5.559  0.2168  0.8874  0.2467
   34DOPC   H6S 4610   2.997   1.150   5.457 -1.0114 -0.6525  0.3988
   34DOPC   C27 4611   3.123   1.016   5.342 -0.0284  0.2389 -0.2658
   34DOPC   H7R 4612   3.124   0.906   5.329  0.8359  0.3612 -1.4704
   34DOPC   H7S 4613   3.230   1.031   5.369 -0.0773  0.5998 -0.2682
   34DOPC   C28 4614   3.076   1.077   5.212 -0.3309  0.4330  0.3015
   34DOPC   H8R 4615   3.051   1.183   5.232  0.3971  1.6162 -4.0128
   34DOPC   H8S 4616   2.982   1.027   5.179  0.6259 -0.4656 -1.1601
   34DOPC   C29 4617   3.173   1.078   5.097  0.1534 -0.1527 -0.4839
   34DOPC   H9R 4618   3.212   1.176   5.069  1.7462 -0.4232  0.6627
   34DOPC  C210 4619   3.225   0.975   5.034  0.1075  0.4611  0.5405
   34DOPC  H10R 4620   3.302   0.993   4.957  2.0345 -0.4624  2.1668
   34DOPC  C211 4621   3.187   0.832   5.052 -0.7497  0.4836 -0.3131
   34DOPC  H11R 4622   3.114   0.822   5.135 -2.3455  0.7142 -1.6336
   34DOPC  H11S 4623   3.275   0.771   5.080 -0.6025  0.4547 -0.8287
   34DOPC  C212 4624   3.116   0.779   4.930 -0.3655  0.2716  0.3342
   34DOPC  H12R 4625   3.032   0.845   4.902 -0.1234  0.3491 -0.2049
   34DOPC  H12S 4626   3.069   0.679   4.949 -1.7134  1.1460  1.8919
   34DOPC  C213 4627   3.210   0.775   4.810 -0.1923  0.1465 -1.2679
   34DOPC  H13R 4628   3.300   0.715   4.838 -0.0292  1.0042  0.1230
   34DOPC  H13S 4629   3.244   0.878   4.787  0.1153 -0.2595 -2.7595
   34DOPC  C214 4630   3.130   0.708   4.695 -0.1685 -0.2877 -0.5731
   34DOPC  H14R 4631   3.054   0.782   4.663 -1.1057 -1.5356 -1.3256
   34DOPC  H14S 4632   3.087   0.611   4.726  1.6696 -0.6076  1.1922
   34DOPC  C215 4633   3.217   0.683   4.571 -0.3954 -0.6464 -0.6183
   34DOPC  H15R 4634   3.293   0.603   4.584  0.1406 -0.1316 -0.6059
   34DOPC  H15S 4635   3.272   0.778   4.563  1.5245 -1.7297 -0.8020
   34DOPC  C216 4636   3.136   0.657   4.445 -0.0477 -0.1702 -0.1444
   34DOPC  H16R 4637   3.053   0.730   4.433 -1.5868 -1.4297  2.0582
   34DOPC  H16S 4638   3.097   0.554   4.459 -0.1550 -0.1818 -0.5237
   34DOPC  C217 4639   3.223   0.659   4.319 -0.1723  0.1111 -0.2228
   34DOPC  H17R 4640   3.247   0.766   4.302  0.6043 -0.4041 -2.7298
   34DOPC  H17S 4641   3.158   0.622   4.236 -0.4731 -1.4249  0.6480
   34DOPC  C218 4642   3.362   0.588   4.320  0.2546  0.1827  0.6574
   34DOPC  H18R 4643   3.432   0.643   4.387 -0.2762  1.8117 -0.0609
   34DOPC  H18S 4644   3.412   0.572   4.222  0.4352 -1.0373  0.9359
   34DOPC  H18T 4645   3.362   0.488   4.368  0.8664 -0.0685  0.1500
   34DOPC   C33 4646   2.794   0.506   5.515 -0.4712 -0.4762 -0.1597
   34DOPC   H3X 4647   2.761   0.601   5.563  0.3823 -0.8183  1.1706
   34DOPC   H3Y 4648   2.701   0.448   5.502 -1.4435  1.1317 -0.6540
   34DOPC   C34 4649   2.851   0.530   5.381 -0.2744 -0.9984  0.2290
   34DOPC   H4X 4650   2.874   0.429   5.340 -1.5815 -1.5322  0.7541
   34DOPC   H4Y 4651   2.929   0.609   5.390  1.1169 -2.2655 -0.3302
   34DOPC   C35 4652   2.750   0.600   5.280 -0.1973  0.3744  0.1802
   34DOPC   H5X 4653   2.705   0.693   5.320 -1.4839  0.0795 -0.4993
   34DOPC   H5Y 4654   2.668   0.525   5.279 -1.3876  1.4636  3.6287
   34DOPC   C36 4655   2.811   0.626   5.144 -0.7309  0.0035 -0.1247
   34DOPC   H6X 4656   2.868   0.721   5.153  0.6673 -0.7146 -1.1067
   34DOPC   H6Y 4657   2.880   0.544   5.117  2.9507  3.0339 -0.7319
   34DOPC   C37 4658   2.701   0.626   5.036 -0.7306  0.0015  0.4099
   34DOPC   H7X 4659   2.646   0.531   5.017 -0.3176 -0.5761  1.9598
   34DOPC   H7Y 4660   2.627   0.695   5.083  0.3255  0.8242  0.8950
   34DOPC   C38 4661   2.756   0.694   4.905  0.6804 -0.5786 -0.3523
   34DOPC   H8X 4662   2.842   0.644   4.857 -0.6471 -3.1611 -0.2231
   34DOPC   H8Y 4663   2.786   0.798   4.928 -1.2132 -0.4493  1.9436
   34DOPC   C39 4664   2.645   0.714   4.812 -0.5123  0.3620 -0.5899
   34DOPC   H9X 4665   2.556   0.760   4.857 -1.3670 -0.7728 -1.0601
   34DOPC  C310 4666   2.627   0.652   4.688  0.0106  0.7872 -0.2351
   34DOPC  H10X 4667   2.538   0.680   4.630 -0.2413  1.7762  0.6105
   34DOPC  C311 4668   2.721   0.567   4.604  0.1361  0.2308 -0.4305
   34DOPC  H11X 4669   2.678   0.469   4.576  0.2355  0.3023 -0.8503
   34DOPC  H11Y 4670   2.815   0.552   4.662  1.0143  0.3354 -1.7726
   34DOPC  C312 4671   2.755   0.631   4.470 -0.1138 -0.0582 -0.0736
   34DOPC  H12X 4672   2.822   0.557   4.421  1.2767 -0.9573  2.9326
   34DOPC  H12Y 4673   2.814   0.724   4.482  1.0613 -0.9948  1.7643
   34DOPC  C313 4674   2.644   0.661   4.369 -0.4484 -0.4380 -0.1111
   34DOPC  H13X 4675   2.574   0.737   4.410 -0.0624 -0.5633  0.8029
   34DOPC  H13Y 4676   2.684   0.703   4.274  1.0312 -0.6420  0.3903
   34DOPC  C314 4677   2.554   0.545   4.328  0.0180  0.6089 -0.4411
   34DOPC  H14X 4678   2.607   0.449   4.311 -1.7354 -0.2079 -1.6025
   34DOPC  H14Y 4679   2.484   0.524   4.412  1.7259 -1.0126  0.6730
   34DOPC  C315 4680   2.472   0.569   4.201  0.0477 -0.3911 -0.1696
   34DOPC  H15X 4681   2.534   0.571   4.109  0.6787  0.8303  0.2598
   34DOPC  H15Y 4682   2.410   0.660   4.213 -3.4503 -2.6443  0.1698
   34DOPC  C316 4683   2.367   0.456   4.185 -0.3531  0.8569 -0.3348
   34DOPC  H16X 4684   2.417   0.358   4.201 -1.1012  0.1079 -2.2636
   34DOPC  H16Y 4685   2.281   0.460   4.254  0.1308 -0.6299  0.4063
   34DOPC  C317 4686   2.307   0.459   4.044  0.2716 -0.2522 -0.1509
   34DOPC  H17X 4687   2.390   0.479   3.973  3.0584 -2.9111  2.0816
   34DOPC  H17Y 4688   2.263   0.363   4.009 -2.5591  1.5023 -1.8083
   34DOPC  C318 4689   2.189   0.550   4.029 -0.1525  0.2394 -0.5929
   34DOPC  H18X 4690   2.161   0.550   3.922 -1.4850 -0.4896 -0.2764
   34DOPC  H18Y 4691   2.094   0.527   4.084 -0.2757 -0.1126 -0.9504
   34DOPC  H18Z 4692   2.219   0.654   4.054  0.7891  0.1369 -1.2665
   35DOPC     N 4693   9.419   0.155   6.738 -0.3756 -0.1773  0.2519
   35DOPC   C12 4694   9.290   0.094   6.692 -0.3508  0.1632 -0.4097
   35DOPC  H12A 4695   9.289   0.093   6.584 -2.0070  0.0809 -0.4310
   35DOPC  H12B 4696   9.218   0.172   6.711  0.1852  0.5247  0.1488
   35DOPC   C13 4697   9.410   0.210   6.879 -0.2129  0.8934  0.4345
   35DOPC  H13A 4698   9.505   0.251   6.909  0.6039 -0.4815 -0.1762
   35DOPC  H13B 4699   9.335   0.287   6.888 -1.7704 -0.5221  0.0523
   35DOPC  H13C 4700   9.375   0.133   6.946 -2.8404 -0.0166 -1.7943
   35DOPC   C14 4701   9.462   0.266   6.654  0.0061 -0.0453  0.8358
   35DOPC  H14A 4702   9.553   0.304   6.697  1.0813  0.4623 -1.7439
   35DOPC  H14B 4703   9.492   0.232   6.557  0.5513  0.8592  0.6726
   35DOPC  H14C 4704   9.388   0.344   6.640  0.8085  0.2623 -2.5019
   35DOPC   C15 4705   9.528   0.059   6.738 -0.7151  0.1920 -0.7922
   35DOPC  H15A 4706   9.514  -0.011   6.819  0.2786  1.3401  0.3995
   35DOPC  H15B 4707   9.624   0.106   6.752 -0.3013 -0.6575 -0.6802
   35DOPC  H15C 4708   9.546   0.008   6.644  1.8625 -1.8744  0.6858
   35DOPC   C11 4709   9.251  -0.047   6.739  0.1816 -1.1751  0.0745
   35DOPC  H11A 4710   9.259  -0.044   6.850  0.4268  2.5991  0.0648
   35DOPC  H11B 4711   9.143  -0.054   6.716  0.3414  1.4800 -1.9791
   35DOPC     P 4712   9.324  -0.218   6.547  0.0056 -0.3664 -0.2112
   35DOPC   O13 4713   9.431  -0.320   6.546  0.5761  0.6491  0.6711
   35DOPC   O14 4714   9.335  -0.124   6.436 -0.1572 -0.0639  0.0250
   35DOPC   O12 4715   9.328  -0.155   6.688 -0.0831  0.3605  0.2248
   35DOPC   O11 4716   9.180  -0.290   6.545 -0.1328  0.1750  0.0503
   35DOPC    C1 4717   9.166  -0.413   6.470 -1.0204 -0.2207 -0.0213
   35DOPC    HA 4718   9.093  -0.477   6.523 -0.4432 -0.6396  0.2783
   35DOPC    HB 4719   9.261  -0.471   6.476 -0.4012  0.7663  0.0930
   35DOPC    C2 4720   9.101  -0.396   6.334  0.1370 -0.2243 -0.5235
   35DOPC    HS 4721   9.084  -0.499   6.296  0.7541 -0.9818  1.1557
   35DOPC   O21 4722   9.178  -0.325   6.241 -0.4208 -0.1701  0.0043
   35DOPC   C21 4723   9.300  -0.379   6.210  0.1743 -0.0368 -0.0747
   35DOPC   O22 4724   9.344  -0.488   6.246 -0.2073  0.1405  0.4977
   35DOPC   C22 4725   9.380  -0.281   6.126 -0.2205  0.2085  0.2531
   35DOPC   H2R 4726   9.477  -0.329   6.103 -0.2006 -2.9227  5.2821
   35DOPC   H2S 4727   9.402  -0.190   6.186 -0.1410  0.2303  0.1895
   35DOPC    C3 4728   8.967  -0.315   6.350  0.0336  0.0118 -0.0553
   35DOPC    HX 4729   8.988  -0.216   6.397 -0.9856 -0.7890  2.2068
   35DOPC    HY 4730   8.908  -0.372   6.425  0.4818  0.1780  0.4267
   35DOPC   O31 4731   8.885  -0.315   6.228 -0.3475  0.8156  0.0959
   35DOPC   C31 4732   8.883  -0.202   6.164  0.1827 -0.1790 -0.2835
   35DOPC   O32 4733   8.943  -0.097   6.191 -0.6793 -0.0873  0.6065
   35DOPC   C32 4734   8.810  -0.223   6.033  0.6113  0.2388 -0.1100
   35DOPC   H2X 4735   8.837  -0.321   5.989 -0.7368 -0.9915  1.6398
   35DOPC   H2Y 4736   8.702  -0.234   6.059  0.6798  0.2037  0.1603
   35DOPC   C23 4737   9.318  -0.243   5.983  0.3128  0.4324 -0.3640
   35DOPC   H3R 4738   9.384  -0.170   5.931 -0.6133  1.5813  0.0135
   35DOPC   H3S 4739   9.216  -0.205   6.002 -0.0693 -0.1683 -1.1901
   35DOPC   C24 4740   9.292  -0.368   5.891  0.0769  0.2997 -0.8568
   35DOPC   H4R 4741   9.249  -0.456   5.943  0.9065 -0.1727 -0.9411
   35DOPC   H4S 4742   9.387  -0.386   5.835 -0.2196 -0.6553 -1.0605
   35DOPC   C25 4743   9.192  -0.318   5.786 -0.0445 -0.3359  0.5670
   35DOPC   H5R 4744   9.220  -0.220   5.741 -1.9526  1.1123  2.3250
   35DOPC   H5S 4745   9.098  -0.298   5.843 -0.0406  0.1487  0.4090
   35DOPC   C26 4746   9.151  -0.420   5.676 -0.3137 -0.2519  0.2747
   35DOPC   H6R 4747   9.060  -0.397   5.618 -0.7940 -1.0204  0.7040
   35DOPC   H6S 4748   9.124  -0.514   5.729  1.6195 -1.7172 -1.1618
   35DOPC   C27 4749   9.265  -0.458   5.573  0.4728 -0.0751 -0.0470
   35DOPC   H7R 4750   9.340  -0.519   5.629 -0.4906 -0.6941  0.5954
   35DOPC   H7S 4751   9.309  -0.361   5.542 -1.2727  0.1207 -2.1057
   35DOPC   C28 4752   9.230  -0.531   5.446  1.2499 -0.1374 -0.6296
   35DOPC   H8R 4753   9.293  -0.520   5.355  0.9458  0.1447 -0.8056
   35DOPC   H8S 4754   9.131  -0.484   5.428 -0.1313 -1.2270  3.0489
   35DOPC   C29 4755   9.197  -0.677   5.468 -0.0470  0.7345  0.3097
   35DOPC   H9R 4756   9.155  -0.698   5.567  1.3956  0.6726  0.9312
   35DOPC  C210 4757   9.207  -0.787   5.387  0.3275 -0.6622 -0.1950
   35DOPC  H10R 4758   9.178  -0.885   5.427 -2.6785  0.5576  0.9043
   35DOPC  C211 4759   9.249  -0.787   5.242  0.0737 -0.2499  0.4135
   35DOPC  H11R 4760   9.334  -0.857   5.223  0.5896 -0.0227  1.7591
   35DOPC  H11S 4761   9.263  -0.683   5.206  0.5912 -0.8851 -1.3025
   35DOPC  C212 4762   9.129  -0.813   5.144 -0.4079 -0.1523 -0.1105
   35DOPC  H12R 4763   9.048  -0.739   5.161 -0.6170 -0.4878  0.3645
   35DOPC  H12S 4764   9.093  -0.917   5.158  0.0769 -0.3838 -0.5541
   35DOPC  C213 4765   9.169  -0.801   4.995 -0.1353  0.4572  0.1991
   35DOPC  H13R 4766   9.259  -0.866   4.981  1.2481  2.8405 -3.3260
   35DOPC  H13S 4767   9.197  -0.698   4.967  1.7254 -0.5537 -2.0256
   35DOPC  C214 4768   9.060  -0.854   4.905 -0.6502 -0.5336 -0.2532
   35DOPC  H14R 4769   8.985  -0.925   4.947  0.9829 -4.1020 -2.8384
   35DOPC  H14S 4770   9.107  -0.918   4.828  1.2560 -0.7049  0.9836
   35DOPC  C215 4771   8.977  -0.738   4.850  0.0562  0.5108 -0.5455
   35DOPC  H15R 4772   9.048  -0.667   4.803 -0.6490  1.7634  0.2236
   35DOPC  H15S 4773   8.935  -0.684   4.938 -2.8234 -0.4488 -1.2452
   35DOPC  C216 4774   8.867  -0.791   4.763 -1.1842 -0.3354  0.8170
   35DOPC  H16R 4775   8.766  -0.755   4.789 -1.0011 -0.2310  1.4039
   35DOPC  H16S 4776   8.871  -0.902   4.768 -0.3597 -0.4635 -1.5025
   35DOPC  C217 4777   8.895  -0.745   4.616 -0.4113 -0.0186  0.3654
   35DOPC  H17R 4778   8.989  -0.794   4.584 -0.9146 -1.2960  0.7522
   35DOPC  H17S 4779   8.929  -0.640   4.619  0.8037 -0.4230  1.5167
   35DOPC  C218 4780   8.783  -0.770   4.513 -0.3347  0.3290  0.2248
   35DOPC  H18R 4781   8.692  -0.708   4.529  0.2203  1.8508 -1.9653
   35DOPC  H18S 4782   8.755  -0.877   4.521  0.9608  0.0424  1.2410
   35DOPC  H18T 4783   8.828  -0.739   4.417 -0.8558  1.1440  0.2363
   35DOPC   C33 4784   8.829  -0.104   5.940  0.1116 -0.2410  0.5242
   35DOPC   H3X 4785   8.930  -0.080   5.901 -0.2659  1.2765  0.4222
   35DOPC   H3Y 4786   8.805  -0.010   5.995 -1.0555  0.4791 -1.1169
   35DOPC   C34 4787   8.732  -0.130   5.825  0.0479 -0.3619  0.6657
   35DOPC   H4X 4788   8.627  -0.108   5.852 -0.3694  1.3017 -1.9376
   35DOPC   H4Y 4789   8.745  -0.239   5.805 -2.3971 -0.4770 -0.6298
   35DOPC   C35 4790   8.778  -0.055   5.698 -0.1019  0.1511 -0.6082
   35DOPC   H5X 4791   8.817   0.044   5.729 -0.2682  0.2243 -0.6342
   35DOPC   H5Y 4792   8.687  -0.037   5.637  0.3346  0.3150 -1.2117
   35DOPC   C36 4793   8.888  -0.114   5.621  0.1190 -0.4439 -0.5409
   35DOPC   H6X 4794   8.984  -0.112   5.677  0.6070 -0.8321 -1.3571
   35DOPC   H6Y 4795   8.863  -0.217   5.588 -0.0101 -0.4601 -0.3927
   35DOPC   C37 4796   8.911  -0.026   5.496 -0.1347  0.0987  0.0631
   35DOPC   H7X 4797   8.811   0.013   5.468  0.6402 -0.0766 -3.2587
   35DOPC   H7Y 4798   8.963   0.068   5.524  0.2375 -0.5418  1.6470
   35DOPC   C38 4799   8.963  -0.101   5.372  0.3781  0.4302  0.6312
   35DOPC   H8X 4800   8.928  -0.048   5.280 -1.9430 -1.8173  0.0896
   35DOPC   H8Y 4801   8.911  -0.199   5.357  1.7299  0.1400 -3.2480
   35DOPC   C39 4802   9.111  -0.127   5.375 -0.1513  0.1602 -0.3156
   35DOPC   H9X 4803   9.136  -0.189   5.462 -0.0134  1.8024  0.8605
   35DOPC  C310 4804   9.210  -0.070   5.309 -0.4820  0.7132 -0.5388
   35DOPC  H10X 4805   9.313  -0.108   5.314  0.3909  2.7861 -1.5113
   35DOPC  C311 4806   9.200   0.048   5.214  0.0877  0.1177  0.1652
   35DOPC  H11X 4807   9.280   0.123   5.232  0.2567  0.0386 -0.2315
   35DOPC  H11Y 4808   9.105   0.105   5.222 -0.6354 -0.3425 -3.2916
   35DOPC  C312 4809   9.217   0.007   5.064  0.4986  0.0612 -0.7412
   35DOPC  H12X 4810   9.123  -0.045   5.035  0.8286  0.3769 -2.5305
   35DOPC  H12Y 4811   9.311  -0.050   5.051  0.2455 -0.4232 -0.4702
   35DOPC  C313 4812   9.248   0.118   4.973 -0.3492  0.0567  0.2543
   35DOPC  H13X 4813   9.184   0.202   5.007  2.1332  2.3979 -0.5261
   35DOPC  H13Y 4814   9.354   0.151   4.980 -0.7503  1.2320  1.1257
   35DOPC  C314 4815   9.217   0.086   4.826 -0.0155 -0.0143 -0.4789
   35DOPC  H14X 4816   9.252  -0.017   4.804 -0.1232 -0.4175  1.1156
   35DOPC  H14Y 4817   9.109   0.089   4.800 -0.2070 -0.7939  0.1786
   35DOPC  C315 4818   9.268   0.202   4.730  0.0417  0.4697 -0.1811
   35DOPC  H15X 4819   9.379   0.207   4.725  0.0541  0.4616  0.1190
   35DOPC  H15Y 4820   9.237   0.296   4.780  1.5163 -0.5458  2.8525
   35DOPC  C316 4821   9.212   0.184   4.591  0.1464 -0.5548  0.4390
   35DOPC  H16X 4822   9.111   0.138   4.596  0.4989 -1.3638  0.3041
   35DOPC  H16Y 4823   9.196   0.283   4.542 -1.5294 -0.1262  1.7529
   35DOPC  C317 4824   9.301   0.103   4.503  0.0161  0.2736  0.1855
   35DOPC  H17X 4825   9.271   0.110   4.397 -2.1871 -2.0478  0.5714
   35DOPC  H17Y 4826   9.404   0.146   4.507 -0.1834  0.6910  1.9189
   35DOPC  C318 4827   9.305  -0.042   4.541  0.5060  0.3557  0.6172
   35DOPC  H18X 4828   9.341  -0.110   4.461 -0.9335 -0.8963  0.9873
   35DOPC  H18Y 4829   9.368  -0.054   4.631  1.7116 -2.3845 -0.5016
   35DOPC  H18Z 4830   9.207  -0.083   4.573  0.1843 -0.6172 -1.4154
   36DOPC     N 4831   4.098   4.599   6.449  0.1737  0.4830  0.4759
   36DOPC   C12 4832   4.036   4.502   6.344 -0.7259 -0.7976 -0.6539
   36DOPC  H12A 4833   3.998   4.571   6.270 -0.2122  0.5649  0.3149
   36DOPC  H12B 4834   3.947   4.453   6.382  1.3636 -2.8108  2.0843
   36DOPC   C13 4835   4.218   4.673   6.392  0.8503 -0.0689 -0.5221
   36DOPC  H13A 4836   4.281   4.599   6.343 -2.3545 -2.8587 -0.8601
   36DOPC  H13B 4837   4.188   4.740   6.313  0.2946 -2.7867 -2.7760
   36DOPC  H13C 4838   4.267   4.720   6.475 -1.2713  0.2072  0.6320
   36DOPC   C14 4839   4.137   4.525   6.573 -0.4580  1.1329  0.5508
   36DOPC  H14A 4840   4.197   4.580   6.644 -0.3737  1.9838 -0.1623
   36DOPC  H14B 4841   4.050   4.479   6.619 -0.3494  2.0876  1.7558
   36DOPC  H14C 4842   4.204   4.444   6.548  1.3707  1.6297  3.4330
   36DOPC   C15 4843   3.998   4.709   6.484  0.3722 -0.1149 -0.3472
   36DOPC  H15A 4844   3.924   4.655   6.542  0.2272 -0.1840 -0.5976
   36DOPC  H15B 4845   3.955   4.764   6.402  1.5578  3.4928  1.2274
   36DOPC  H15C 4846   4.047   4.785   6.544  0.5270  0.1360 -0.7876
   36DOPC   C11 4847   4.131   4.392   6.295 -0.2377 -1.3998  0.1782
   36DOPC  H11A 4848   4.107   4.363   6.190  1.6117 -0.7676 -0.4494
   36DOPC  H11B 4849   4.228   4.443   6.283 -0.5281 -0.0644  2.8868
   36DOPC     P 4850   4.027   4.186   6.400 -0.2440  0.0404  0.1591
   36DOPC   O13 4851   3.901   4.250   6.434  0.2743  0.4183 -0.2851
   36DOPC   O14 4852   4.061   4.071   6.487 -0.0331 -0.1313 -0.2345
   36DOPC   O12 4853   4.145   4.289   6.390 -0.3026 -0.5432 -0.0282
   36DOPC   O11 4854   4.025   4.130   6.253 -0.3094 -0.6551  0.3622
   36DOPC    C1 4855   4.150   4.082   6.200  0.0612  0.2442  0.7566
   36DOPC    HA 4856   4.179   3.989   6.254  0.7751 -0.2756 -0.4729
   36DOPC    HB 4857   4.235   4.153   6.215  0.7098 -0.4148  0.2510
   36DOPC    C2 4858   4.154   4.049   6.047  0.1817 -0.3003  0.3773
   36DOPC    HS 4859   4.247   3.990   6.028 -0.2826 -1.6974  2.1661
   36DOPC   O21 4860   4.135   4.168   5.965 -0.4139 -0.4188 -0.3734
   36DOPC   C21 4861   4.229   4.258   5.960 -0.6464  0.2124  0.4943
   36DOPC   O22 4862   4.339   4.259   6.011  0.0478 -0.2204 -0.0856
   36DOPC   C22 4863   4.182   4.360   5.854  0.6786  0.4640 -0.2070
   36DOPC   H2R 4864   4.104   4.419   5.905 -1.1167 -1.3347 -0.7199
   36DOPC   H2S 4865   4.127   4.299   5.778  0.2314 -0.8961  1.1558
   36DOPC    C3 4866   4.048   3.946   6.011  0.6079 -0.5326  0.5021
   36DOPC    HX 4867   3.956   3.991   6.054  1.1585  1.9318 -0.7273
   36DOPC    HY 4868   4.080   3.847   6.051  0.2167 -1.1958 -0.7765
   36DOPC   O31 4869   4.038   3.930   5.865  0.0398 -0.3474  0.0938
   36DOPC   C31 4870   3.936   4.000   5.808  0.0600  0.3450 -0.2562
   36DOPC   O32 4871   3.865   4.085   5.855 -0.4207  0.3263 -0.3203
   36DOPC   C32 4872   3.938   3.958   5.658  0.3037 -0.3617  0.2350
   36DOPC   H2X 4873   4.009   3.873   5.648 -0.3532 -1.0354  1.0520
   36DOPC   H2Y 4874   3.837   3.917   5.636  0.5279 -1.1976  0.6932
   36DOPC   C23 4875   4.304   4.429   5.788  0.1057 -0.2173  0.5505
   36DOPC   H3R 4876   4.394   4.451   5.849 -0.0250 -0.3845  0.8051
   36DOPC   H3S 4877   4.271   4.531   5.757  1.4868  0.2163  0.4349
   36DOPC   C24 4878   4.341   4.359   5.655  0.2141 -0.1186 -0.9635
   36DOPC   H4R 4879   4.250   4.352   5.593 -2.6338  1.1242  2.6982
   36DOPC   H4S 4880   4.362   4.253   5.680  3.2009 -0.0376 -2.5847
   36DOPC   C25 4881   4.472   4.409   5.596  0.2748  0.6816  0.6703
   36DOPC   H5R 4882   4.554   4.401   5.671  0.6746 -0.4280  0.1293
   36DOPC   H5S 4883   4.456   4.516   5.570 -2.1617  0.4146  0.8269
   36DOPC   C26 4884   4.498   4.334   5.463 -0.0206  0.1678 -0.5572
   36DOPC   H6R 4885   4.561   4.398   5.397  1.2934 -0.9789 -0.4495
   36DOPC   H6S 4886   4.404   4.320   5.405  1.1998  2.1584 -3.1885
   36DOPC   C27 4887   4.566   4.205   5.497  0.0070  0.6849 -0.6261
   36DOPC   H7R 4888   4.509   4.128   5.554 -0.9775  1.6907 -0.2241
   36DOPC   H7S 4889   4.665   4.215   5.546 -0.1961 -3.1775  0.9736
   36DOPC   C28 4890   4.601   4.126   5.366  0.7956  0.4342 -0.1789
   36DOPC   H8R 4891   4.509   4.132   5.304 -0.0775  2.7474  1.2096
   36DOPC   H8S 4892   4.623   4.021   5.397  0.6638  0.5267  0.2379
   36DOPC   C29 4893   4.716   4.186   5.299 -0.4649  0.1306 -0.0462
   36DOPC   H9R 4894   4.793   4.240   5.356 -1.0895  1.7967 -0.7389
   36DOPC  C210 4895   4.726   4.193   5.165 -0.4044  0.7356 -0.6052
   36DOPC  H10R 4896   4.814   4.241   5.120  1.4217 -0.5312  1.4283
   36DOPC  C211 4897   4.636   4.133   5.056  0.2421  0.2731 -0.0762
   36DOPC  H11R 4898   4.528   4.139   5.081  0.4911 -0.8935  1.4240
   36DOPC  H11S 4899   4.656   4.023   5.051  1.6772  0.4186  1.3727
   36DOPC  C212 4900   4.653   4.184   4.915  0.1950 -0.1436  0.5509
   36DOPC  H12R 4901   4.760   4.198   4.887  0.6282 -0.3316  2.0268
   36DOPC  H12S 4902   4.603   4.283   4.916  0.9141  0.2273  0.4330
   36DOPC  C213 4903   4.585   4.100   4.807 -0.3343  0.1840 -0.5600
   36DOPC  H13R 4904   4.479   4.089   4.838  0.4970  0.6442  2.8521
   36DOPC  H13S 4905   4.630   4.000   4.823 -3.3880 -0.8479  3.2159
   36DOPC  C214 4906   4.612   4.169   4.674  0.2835 -0.2838  0.5857
   36DOPC  H14R 4907   4.718   4.182   4.646 -0.3102 -0.2225 -1.8054
   36DOPC  H14S 4908   4.577   4.274   4.685 -0.1327 -0.5933  2.6174
   36DOPC  C215 4909   4.542   4.100   4.559  0.5041  0.1940 -0.0328
   36DOPC  H15R 4910   4.434   4.097   4.584  0.7502  0.9511  1.2265
   36DOPC  H15S 4911   4.589   4.000   4.551 -0.9707 -0.5716  0.3970
   36DOPC  C216 4912   4.547   4.190   4.428  0.4883 -0.0906 -1.1616
   36DOPC  H16R 4913   4.499   4.285   4.459 -0.6389 -0.2606 -2.3213
   36DOPC  H16S 4914   4.477   4.144   4.355 -0.8078  1.9137 -1.2479
   36DOPC  C217 4915   4.680   4.195   4.354  0.6884  0.1785  0.2414
   36DOPC  H17R 4916   4.761   4.244   4.412  1.6031 -0.8760 -0.1080
   36DOPC  H17S 4917   4.663   4.255   4.262 -1.5408 -1.5374 -0.5523
   36DOPC  C218 4918   4.728   4.069   4.290 -0.0449 -0.0232 -0.3487
   36DOPC  H18R 4919   4.653   4.032   4.218  1.8342  0.3861 -2.6338
   36DOPC  H18S 4920   4.764   3.998   4.368  0.3798  1.1562  0.5625
   36DOPC  H18T 4921   4.816   4.090   4.225  0.7053 -3.3469 -0.5950
   36DOPC   C33 4922   3.991   4.067   5.568 -0.3312 -0.5081  0.0533
   36DOPC   H3X 4923   4.098   4.084   5.590 -0.7646  2.0355  0.6023
   36DOPC   H3Y 4924   3.946   4.161   5.606 -0.4448 -0.6942  0.3852
   36DOPC   C34 4925   3.939   4.046   5.435 -0.6157 -0.6406  0.3082
   36DOPC   H4X 4926   3.829   4.037   5.427 -0.6353  0.6965 -1.7787
   36DOPC   H4Y 4927   3.987   3.950   5.406 -1.1235 -0.9916  0.6292
   36DOPC   C35 4928   3.980   4.158   5.337 -0.0817 -0.1883  0.5979
   36DOPC   H5X 4929   3.930   4.253   5.363 -1.5378 -0.5006 -0.8357
   36DOPC   H5Y 4930   3.945   4.151   5.231  0.2506  1.3067  0.3785
   36DOPC   C36 4931   4.128   4.179   5.320  0.0532  0.6191 -0.0190
   36DOPC   H6X 4932   4.174   4.187   5.421 -2.8023 -0.1511  1.4433
   36DOPC   H6Y 4933   4.171   4.093   5.265 -2.0263 -1.6592  1.7221
   36DOPC   C37 4934   4.152   4.312   5.242  0.0059  0.2067 -0.1179
   36DOPC   H7X 4935   4.057   4.333   5.189 -0.3329 -0.0573  0.3725
   36DOPC   H7Y 4936   4.169   4.397   5.311 -0.3057  0.7604 -0.7123
   36DOPC   C38 4937   4.266   4.294   5.137  0.1732 -0.9614 -0.1032
   36DOPC   H8X 4938   4.246   4.197   5.088  0.1494 -1.0604  0.1030
   36DOPC   H8Y 4939   4.355   4.288   5.203 -0.1855  1.6045  0.7304
   36DOPC   C39 4940   4.280   4.396   5.032 -0.1029 -0.1202  0.3405
   36DOPC   H9X 4941   4.322   4.493   5.064 -1.5956  0.5382  0.3952
   36DOPC  C310 4942   4.241   4.399   4.908  0.3032 -0.2416  0.3276
   36DOPC  H10X 4943   4.235   4.490   4.846  0.5384 -0.4312  0.0218
   36DOPC  C311 4944   4.166   4.286   4.849  0.6874 -0.0691 -0.0707
   36DOPC  H11X 4945   4.063   4.279   4.890  0.6054  0.8620 -0.0932
   36DOPC  H11Y 4946   4.215   4.191   4.878  0.9953 -0.6340 -2.2671
   36DOPC  C312 4947   4.167   4.269   4.699  0.0641  0.3938 -0.1117
   36DOPC  H12X 4948   4.120   4.169   4.687 -1.3409  0.5919  2.8593
   36DOPC  H12Y 4949   4.274   4.262   4.671  0.9791 -0.4998  3.2203
   36DOPC  C313 4950   4.089   4.377   4.623  0.3233 -0.2542  0.3503
   36DOPC  H13X 4951   3.987   4.361   4.663 -0.6286 -0.3885 -2.0122
   36DOPC  H13Y 4952   4.138   4.475   4.642 -0.0443 -0.0890  0.4389
   36DOPC  C314 4953   4.097   4.366   4.472 -0.0138 -0.2908 -0.0343
   36DOPC  H14X 4954   4.032   4.443   4.427 -0.7551  0.5750  2.3874
   36DOPC  H14Y 4955   4.201   4.370   4.433 -0.7393  0.0672 -2.0338
   36DOPC  C315 4956   4.037   4.234   4.415  0.0328  0.3300  0.0763
   36DOPC  H15X 4957   3.930   4.236   4.445 -0.1697  1.7076 -0.6488
   36DOPC  H15Y 4958   4.092   4.152   4.466  1.9672  0.3623 -1.8432
   36DOPC  C316 4959   4.044   4.218   4.271 -0.6848  1.0229 -0.1235
   36DOPC  H16X 4960   4.018   4.312   4.218 -0.3037  0.2376 -1.7673
   36DOPC  H16Y 4961   4.143   4.181   4.239 -1.0510 -0.2027  0.0888
   36DOPC  C317 4962   3.944   4.109   4.224 -0.0553 -0.1610 -0.1386
   36DOPC  H17X 4963   3.985   4.013   4.261 -0.2648 -0.2930 -0.2444
   36DOPC  H17Y 4964   3.848   4.118   4.280  1.0174  0.7276  1.6437
   36DOPC  C318 4965   3.911   4.111   4.078  0.3943  0.1897 -0.1394
   36DOPC  H18X 4966   3.831   4.186   4.058  1.7958  1.7750  0.0001
   36DOPC  H18Y 4967   3.998   4.143   4.016  0.3431 -2.4965 -1.7677
   36DOPC  H18Z 4968   3.881   4.011   4.041  2.6366 -1.2928  1.7574
   37DOPC     N 4969   8.532   9.167   5.881 -0.2180  0.2298 -0.4210
   37DOPC   C12 4970   8.378   9.186   5.893 -0.1892  0.2387 -0.4196
   37DOPC  H12A 4971   8.332   9.140   5.806 -1.8142 -1.4221  1.2336
   37DOPC  H12B 4972   8.362   9.293   5.895  1.2130  0.5770 -2.7842
   37DOPC   C13 4973   8.607   9.216   5.999 -0.1203 -0.0852 -0.3135
   37DOPC  H13A 4974   8.580   9.315   6.031  1.8776  0.5971 -0.5731
   37DOPC  H13B 4975   8.602   9.150   6.084 -0.0186 -0.2697 -0.4475
   37DOPC  H13C 4976   8.707   9.243   5.967 -0.2169  0.5640 -0.0714
   37DOPC   C14 4977   8.584   9.233   5.760  0.2394  0.8236 -0.1040
   37DOPC  H14A 4978   8.687   9.204   5.746 -0.1133  0.5050 -2.3962
   37DOPC  H14B 4979   8.530   9.195   5.674  1.2052  0.4759 -0.5721
   37DOPC  H14C 4980   8.576   9.341   5.758  2.1665  0.9879 -0.3897
   37DOPC   C15 4981   8.565   9.024   5.870  0.5982 -0.5329 -0.0630
   37DOPC  H15A 4982   8.661   8.998   5.913  0.8536  0.2532 -0.1464
   37DOPC  H15B 4983   8.563   8.990   5.768  1.1136 -1.2773  0.1665
   37DOPC  H15C 4984   8.493   8.971   5.931  0.1400  2.0238  1.7752
   37DOPC   C11 4985   8.305   9.134   6.017 -0.1586 -0.5119 -0.1410
   37DOPC  H11A 4986   8.346   9.190   6.104 -2.2769  1.6690 -0.4456
   37DOPC  H11B 4987   8.197   9.157   6.011  0.3558  2.6035  0.8093
   37DOPC     P 4988   8.217   8.882   6.020 -0.0910 -0.2482  0.1967
   37DOPC   O13 4989   8.123   8.907   6.124 -0.0713  0.3526 -0.6871
   37DOPC   O14 4990   8.282   8.751   6.013 -0.3457  0.0460 -0.0731
   37DOPC   O12 4991   8.330   8.990   6.028  0.0852 -0.5256 -0.4583
   37DOPC   O11 4992   8.147   8.910   5.881 -0.0148  0.1568 -0.0157
   37DOPC    C1 4993   8.012   8.873   5.871  0.4714  0.5461  0.0783
   37DOPC    HA 4994   7.950   8.945   5.929  1.0139  0.6195  0.5786
   37DOPC    HB 4995   7.989   8.771   5.911 -0.0643  0.1906 -1.0930
   37DOPC    C2 4996   7.968   8.881   5.719  0.1710  0.5830 -0.3335
   37DOPC    HS 4997   7.865   8.843   5.704  0.6209 -0.7539 -0.1264
   37DOPC   O21 4998   8.058   8.831   5.620  0.5607 -0.0820  0.1298
   37DOPC   C21 4999   8.046   8.694   5.609  0.3046  0.0757  0.5771
   37DOPC   O22 5000   7.972   8.621   5.673 -0.4631 -0.5818  0.4530
   37DOPC   C22 5001   8.143   8.638   5.504 -0.3147  0.1635  0.3843
   37DOPC   H2R 5002   8.128   8.532   5.476  3.5266 -0.3481 -0.2546
   37DOPC   H2S 5003   8.242   8.650   5.554 -0.7366 -0.4755  1.4198
   37DOPC    C3 5004   7.948   9.037   5.694 -0.3678 -0.0666 -0.6422
   37DOPC    HX 5005   8.032   9.094   5.738 -0.4247 -1.7549  1.8882
   37DOPC    HY 5006   7.866   9.068   5.763  0.2794  0.7139 -0.2129
   37DOPC   O31 5007   7.902   9.069   5.563  0.4861 -0.5125  0.6982
   37DOPC   C31 5008   7.998   9.111   5.477  0.1839 -0.0384  0.4485
   37DOPC   O32 5009   8.114   9.114   5.501 -0.4649  0.3869  0.3987
   37DOPC   C32 5010   7.937   9.125   5.340  0.3853 -0.2077  0.7406
   37DOPC   H2X 5011   7.893   9.025   5.320  1.3374 -0.8829  1.8958
   37DOPC   H2Y 5012   7.852   9.196   5.344 -0.8631 -1.6328  0.4494
   37DOPC   C23 5013   8.139   8.711   5.361 -0.5640  0.2315  0.2151
   37DOPC   H3R 5014   8.232   8.684   5.308 -1.4295 -2.1402 -0.2424
   37DOPC   H3S 5015   8.146   8.820   5.382  0.2778 -0.1609  2.2542
   37DOPC   C24 5016   8.018   8.669   5.284 -0.2314  0.2510 -0.1952
   37DOPC   H4R 5017   7.926   8.699   5.339 -0.9279  0.5487 -1.5022
   37DOPC   H4S 5018   8.025   8.558   5.274 -1.5166  0.1829 -0.4637
   37DOPC   C25 5019   8.006   8.754   5.153 -0.2692  0.1253  0.0204
   37DOPC   H5R 5020   8.096   8.739   5.090  1.1712  0.7287  1.8253
   37DOPC   H5S 5021   8.003   8.861   5.183  0.1821 -0.1019  0.9104
   37DOPC   C26 5022   7.887   8.707   5.066  0.1060 -0.3659  0.1509
   37DOPC   H6R 5023   7.794   8.708   5.128 -1.0449 -1.2732 -1.4924
   37DOPC   H6S 5024   7.907   8.599   5.048  2.3619 -0.1372  1.0536
   37DOPC   C27 5025   7.864   8.793   4.945 -0.1383 -0.2135 -0.4213
   37DOPC   H7R 5026   7.958   8.790   4.886 -0.1996 -1.6592 -0.4704
   37DOPC   H7S 5027   7.849   8.901   4.967 -1.0032 -0.4105 -0.0053
   37DOPC   C28 5028   7.738   8.749   4.867  0.2349 -0.3091  0.2404
   37DOPC   H8R 5029   7.692   8.826   4.802 -0.8162 -0.3416  0.9326
   37DOPC   H8S 5030   7.658   8.726   4.940 -0.8224 -0.0021 -0.7831
   37DOPC   C29 5031   7.770   8.622   4.793  0.0327 -0.2045  0.9150
   37DOPC   H9R 5032   7.845   8.640   4.715  1.3979 -0.2158  2.1886
   37DOPC  C210 5033   7.749   8.498   4.832 -0.2025  0.6343  0.8951
   37DOPC  H10R 5034   7.778   8.413   4.768 -0.1636  1.2539  0.0777
   37DOPC  C211 5035   7.668   8.463   4.952  0.2341  0.8800 -0.5826
   37DOPC  H11R 5036   7.578   8.417   4.907  0.4716  1.3093 -1.5109
   37DOPC  H11S 5037   7.634   8.553   5.008 -0.7633  0.4725 -0.5238
   37DOPC  C212 5038   7.726   8.364   5.052 -0.0281 -0.1858  1.2742
   37DOPC  H12R 5039   7.828   8.396   5.083  0.5743 -2.1091  1.3744
   37DOPC  H12S 5040   7.730   8.265   5.002 -0.1808  0.1554  0.5767
   37DOPC  C213 5041   7.643   8.346   5.188 -0.1856  0.9731  0.5854
   37DOPC  H13R 5042   7.705   8.274   5.245  0.4951  0.1369 -1.1437
   37DOPC  H13S 5043   7.539   8.315   5.166 -0.3212  1.7042  0.1336
   37DOPC  C214 5044   7.638   8.478   5.273  0.2740 -0.0869 -0.1413
   37DOPC  H14R 5045   7.558   8.538   5.226 -0.7328  0.4806  2.1900
   37DOPC  H14S 5046   7.733   8.536   5.265  0.5463  0.4543  4.4072
   37DOPC  C215 5047   7.608   8.465   5.422 -0.2607  0.3264  0.1844
   37DOPC  H15R 5048   7.691   8.409   5.471  0.0213  0.9247  0.4113
   37DOPC  H15S 5049   7.515   8.406   5.428  0.4912 -0.8492  0.6892
   37DOPC  C216 5050   7.588   8.601   5.492  0.3444  0.0488  0.5056
   37DOPC  H16R 5051   7.505   8.658   5.444  0.8115  2.7346  2.6950
   37DOPC  H16S 5052   7.682   8.656   5.473  0.8870 -0.4991  1.5117
   37DOPC  C217 5053   7.576   8.598   5.648  0.2264 -0.4232 -0.1902
   37DOPC  H17R 5054   7.586   8.700   5.690  3.6005 -1.4971  2.0357
   37DOPC  H17S 5055   7.663   8.542   5.688 -0.3552 -0.7229  0.6668
   37DOPC  C218 5056   7.450   8.517   5.697 -1.0823  0.3797  0.5474
   37DOPC  H18R 5057   7.351   8.566   5.689 -0.0771  2.6134  1.0215
   37DOPC  H18S 5058   7.465   8.496   5.805  1.6110  0.7576  0.3370
   37DOPC  H18T 5059   7.450   8.432   5.626 -1.8501  1.2294 -0.5167
   37DOPC   C33 5060   8.040   9.153   5.231  0.0441 -0.2064 -0.3716
   37DOPC   H3X 5061   8.108   9.065   5.230 -0.3096 -0.6900  3.2323
   37DOPC   H3Y 5062   8.091   9.249   5.252  3.0344 -1.9170  0.7770
   37DOPC   C34 5063   7.960   9.163   5.095  0.8929  0.1473  0.0074
   37DOPC   H4X 5064   7.890   9.249   5.104  1.2108  0.3941  0.1249
   37DOPC   H4Y 5065   7.898   9.071   5.096  0.1645  0.6341  0.4639
   37DOPC   C35 5066   8.058   9.169   4.989  0.3441  0.4730  0.6545
   37DOPC   H5X 5067   8.126   9.082   4.986 -1.0735 -0.6985  1.1427
   37DOPC   H5Y 5068   8.117   9.263   4.992 -0.3991  0.9299  1.2065
   37DOPC   C36 5069   7.979   9.157   4.854 -0.3922  1.3933  0.1293
   37DOPC   H6X 5070   8.061   9.141   4.780 -0.7632  0.8413 -0.1648
   37DOPC   H6Y 5071   7.916   9.067   4.868 -2.2255  2.0487 -2.8910
   37DOPC   C37 5072   7.887   9.276   4.816 -0.1363 -0.2226  0.1337
   37DOPC   H7X 5073   7.818   9.302   4.900 -1.6218 -3.5399  0.1203
   37DOPC   H7Y 5074   7.936   9.373   4.797  0.6960 -0.1880  2.1208
   37DOPC   C38 5075   7.807   9.237   4.692  0.1010 -0.4976  1.0708
   37DOPC   H8X 5076   7.746   9.145   4.707 -0.2235 -0.6093 -0.7569
   37DOPC   H8Y 5077   7.885   9.205   4.619 -0.2089  3.4823 -1.2775
   37DOPC   C39 5078   7.712   9.346   4.664  0.5442  0.6553  1.1616
   37DOPC   H9X 5079   7.660   9.383   4.754 -1.8507 -0.2395  0.2233
   37DOPC  C310 5080   7.673   9.386   4.541 -0.5275 -0.9897 -0.3608
   37DOPC  H10X 5081   7.588   9.455   4.530  0.4143 -0.0603 -2.0284
   37DOPC  C311 5082   7.728   9.329   4.408 -0.3544 -0.1244 -0.3945
   37DOPC  H11X 5083   7.658   9.343   4.323 -2.1686 -2.7681  0.5167
   37DOPC  H11Y 5084   7.723   9.218   4.415 -0.4044 -0.3340 -2.8741
   37DOPC  C312 5085   7.871   9.376   4.374 -0.3371  0.0178  0.0482
   37DOPC  H12X 5086   7.910   9.308   4.295 -0.4943  0.4761 -0.4250
   37DOPC  H12Y 5087   7.933   9.372   4.466 -1.1392  1.1166  0.6591
   37DOPC  C313 5088   7.895   9.521   4.317 -0.0363  0.4114  0.3829
   37DOPC  H13X 5089   7.815   9.543   4.243 -1.9926 -0.8881  1.9895
   37DOPC  H13Y 5090   7.874   9.593   4.399  0.4163  1.2610 -0.2310
   37DOPC  C314 5091   8.028   9.526   4.245  0.2012 -0.3924 -0.0305
   37DOPC  H14X 5092   8.061   9.631   4.237 -1.4067  0.5665  3.6418
   37DOPC  H14Y 5093   8.111   9.480   4.303 -0.1665  1.8767  2.5004
   37DOPC  C315 5094   8.035   9.476   4.100  0.4482 -0.1197  0.4041
   37DOPC  H15X 5095   7.963   9.528   4.034  0.5316  0.8176  1.0343
   37DOPC  H15Y 5096   8.011   9.367   4.093 -1.0919  0.2338 -0.0795
   37DOPC  C316 5097   8.186   9.492   4.052  0.2404  0.9466 -0.3865
   37DOPC  H16X 5098   8.206   9.601   4.063 -2.8056  1.5430  0.4088
   37DOPC  H16Y 5099   8.242   9.441   4.133 -0.0329  0.9268 -0.2083
   37DOPC  C317 5100   8.220   9.445   3.904 -0.0279  0.0117 -0.3992
   37DOPC  H17X 5101   8.196   9.337   3.895  0.4587 -0.0379 -1.2033
   37DOPC  H17Y 5102   8.154   9.497   3.832 -2.6776 -0.4584  1.5556
   37DOPC  C318 5103   8.369   9.465   3.858 -0.4519 -0.0651 -0.4063
   37DOPC  H18X 5104   8.394   9.574   3.858 -1.6698  0.3351  2.9821
   37DOPC  H18Y 5105   8.428   9.404   3.930 -1.0937 -0.8371 -0.5289
   37DOPC  H18Z 5106   8.389   9.424   3.757  0.1427  0.6711 -0.6025
   38DOPC     N 5107   6.189   4.122   6.018 -0.1764  0.0638 -0.1850
   38DOPC   C12 5108   6.256   4.006   5.961 -0.5371 -0.2701  0.2943
   38DOPC  H12A 5109   6.184   3.958   5.896 -1.7161 -2.4868  3.0287
   38DOPC  H12B 5110   6.286   3.945   6.045 -0.9449  0.7143  1.1615
   38DOPC   C13 5111   6.112   4.186   5.912  0.0639 -0.1887  0.3024
   38DOPC  H13A 5112   6.021   4.134   5.884 -0.6643  1.5675 -0.7649
   38DOPC  H13B 5113   6.076   4.282   5.945  1.0958 -0.2008  1.5110
   38DOPC  H13C 5114   6.169   4.203   5.822 -0.4282  1.3678  0.2613
   38DOPC   C14 5115   6.291   4.216   6.079  0.0443 -0.1446 -0.0330
   38DOPC  H14A 5116   6.363   4.261   6.012  2.0366 -2.6933  0.2331
   38DOPC  H14B 5117   6.240   4.283   6.147  0.6946  0.2087  0.1227
   38DOPC  H14C 5118   6.357   4.159   6.144  1.0093  0.9512 -0.0062
   38DOPC   C15 5119   6.097   4.080   6.128 -0.3648  0.4003 -0.1146
   38DOPC  H15A 5120   6.031   4.157   6.166  0.0804  0.2564  0.9656
   38DOPC  H15B 5121   6.153   4.054   6.216 -0.5498  2.0334  0.5195
   38DOPC  H15C 5122   6.030   4.000   6.102 -0.6096  0.0560  1.4892
   38DOPC   C11 5123   6.393   4.035   5.881 -0.1495  0.0944  0.0177
   38DOPC  H11A 5124   6.474   4.082   5.940  0.4827  1.8412 -2.1446
   38DOPC  H11B 5125   6.427   3.933   5.852 -2.2898 -0.5903 -0.2981
   38DOPC     P 5126   6.487   4.182   5.693  0.5192  0.0948 -0.3330
   38DOPC   O13 5127   6.589   4.221   5.794 -0.2125 -0.2778  0.4978
   38DOPC   O14 5128   6.426   4.288   5.613  0.6040  0.4346 -0.6390
   38DOPC   O12 5129   6.365   4.113   5.770 -0.1512  0.0993 -0.3005
   38DOPC   O11 5130   6.554   4.071   5.590  0.4322 -0.4414  0.8808
   38DOPC    C1 5131   6.483   4.057   5.469  0.4884  0.1469  0.6083
   38DOPC    HA 5132   6.494   4.144   5.402 -1.5775 -0.1873 -0.2164
   38DOPC    HB 5133   6.374   4.039   5.479  0.6050 -1.6475 -0.7619
   38DOPC    C2 5134   6.534   3.927   5.394 -0.0306  0.0248 -0.4465
   38DOPC    HS 5135   6.517   3.845   5.466 -0.0235  0.1902 -0.2570
   38DOPC   O21 5136   6.672   3.944   5.353  1.0395  0.0422 -0.2226
   38DOPC   C21 5137   6.736   3.836   5.310  0.3378  0.1202  0.1004
   38DOPC   O22 5138   6.691   3.721   5.315 -0.3058  0.2881  0.1274
   38DOPC   C22 5139   6.872   3.868   5.260  0.2123 -0.3938 -0.4619
   38DOPC   H2R 5140   6.908   3.793   5.186  0.4366 -1.0093  0.2551
   38DOPC   H2S 5141   6.936   3.854   5.350  0.2362 -0.6125 -0.5121
   38DOPC    C3 5142   6.439   3.901   5.265  0.2250  0.0358  0.2907
   38DOPC    HX 5143   6.337   3.885   5.304  0.5728 -1.1455  0.7778
   38DOPC    HY 5144   6.463   3.808   5.208  2.6145  0.6890  0.0918
   38DOPC   O31 5145   6.440   4.011   5.169  0.6461  1.4052 -0.4781
   38DOPC   C31 5146   6.347   4.004   5.071  0.7057  0.4191  0.1310
   38DOPC   O32 5147   6.263   3.914   5.057  0.0841  0.2364 -0.1849
   38DOPC   C32 5148   6.348   4.131   4.997 -0.3917  0.1010 -0.8445
   38DOPC   H2X 5149   6.321   4.215   5.065 -0.3058 -1.1888  0.8461
   38DOPC   H2Y 5150   6.450   4.151   4.958 -0.5428  0.8274 -0.8849
   38DOPC   C23 5151   6.884   4.016   5.217 -0.3936 -0.3189  0.1548
   38DOPC   H3R 5152   6.991   4.045   5.206 -0.1175 -1.1450  0.5629
   38DOPC   H3S 5153   6.836   4.088   5.287 -2.4237 -1.0243 -0.4505
   38DOPC   C24 5154   6.814   4.028   5.087 -1.1077  0.0476  0.0864
   38DOPC   H4R 5155   6.717   3.978   5.103 -0.0817 -1.4356  2.1091
   38DOPC   H4S 5156   6.871   3.983   5.003  0.4243  0.9367  0.5981
   38DOPC   C25 5157   6.779   4.170   5.042  0.4824  0.4351 -0.2361
   38DOPC   H5R 5158   6.869   4.232   5.062  1.0700 -1.0185  2.0474
   38DOPC   H5S 5159   6.695   4.205   5.106  0.6505 -0.0461  0.2584
   38DOPC   C26 5160   6.739   4.165   4.895 -0.6620  0.5032  0.0510
   38DOPC   H6R 5161   6.650   4.099   4.883  0.0162 -0.6043  0.8612
   38DOPC   H6S 5162   6.817   4.113   4.836 -0.4369  0.8155  0.0698
   38DOPC   C27 5163   6.731   4.302   4.825  0.6191  0.0210  0.0574
   38DOPC   H7R 5164   6.836   4.337   4.822  0.5767  0.0990 -0.8119
   38DOPC   H7S 5165   6.669   4.375   4.880  0.3679 -0.1308 -0.0213
   38DOPC   C28 5166   6.677   4.294   4.678 -0.6622 -0.2517 -0.0765
   38DOPC   H8R 5167   6.574   4.254   4.682 -0.6126 -0.7144 -2.2112
   38DOPC   H8S 5168   6.732   4.225   4.609  0.4315  1.1030 -0.6077
   38DOPC   C29 5169   6.646   4.432   4.620  0.2256  0.4871  0.2399
   38DOPC   H9R 5170   6.560   4.488   4.660 -1.0406  1.1411 -3.0919
   38DOPC  C210 5171   6.698   4.481   4.512 -0.6934 -0.0906 -0.5945
   38DOPC  H10R 5172   6.650   4.577   4.488 -1.9589 -0.6719 -0.4759
   38DOPC  C211 5173   6.812   4.431   4.428 -0.5649 -0.1624 -0.4955
   38DOPC  H11R 5174   6.773   4.429   4.324  0.8275  0.8027 -1.0685
   38DOPC  H11S 5175   6.841   4.324   4.442  2.0012  0.6390  1.0185
   38DOPC  C212 5176   6.946   4.504   4.451  0.6505  0.1076  0.9839
   38DOPC  H12R 5177   6.934   4.615   4.453  2.9617  0.4097  2.9176
   38DOPC  H12S 5178   7.022   4.468   4.379  0.2472  0.3698  0.4296
   38DOPC  C213 5179   6.999   4.492   4.597 -0.0256 -0.1592  0.3414
   38DOPC  H13R 5180   7.042   4.390   4.596  0.0841 -0.1160 -1.4537
   38DOPC  H13S 5181   6.924   4.506   4.678 -0.8575 -0.4213 -0.3671
   38DOPC  C214 5182   7.107   4.594   4.626 -0.4354 -0.3835  0.3358
   38DOPC  H14R 5183   7.068   4.697   4.644 -2.2551 -0.4741 -2.4650
   38DOPC  H14S 5184   7.190   4.599   4.552  0.6886  0.8485  1.6042
   38DOPC  C215 5185   7.178   4.542   4.753 -0.3173  0.1545 -0.4326
   38DOPC  H15R 5186   7.234   4.447   4.741  0.0261 -0.0321  2.0899
   38DOPC  H15S 5187   7.108   4.535   4.839 -4.3818  2.5638 -3.2325
   38DOPC  C216 5188   7.296   4.633   4.792  0.1992 -0.1376 -0.7002
   38DOPC  H16R 5189   7.257   4.729   4.832  1.1627 -0.2788  0.6377
   38DOPC  H16S 5190   7.366   4.639   4.706  0.7300  1.3406 -0.1847
   38DOPC  C217 5191   7.384   4.565   4.904 -0.9454 -0.0327 -0.0548
   38DOPC  H17R 5192   7.490   4.598   4.906 -0.8300 -0.3122 -1.3134
   38DOPC  H17S 5193   7.373   4.456   4.886 -0.0009 -0.4446  1.6725
   38DOPC  C218 5194   7.327   4.588   5.048 -0.6073 -0.0737  0.6348
   38DOPC  H18R 5195   7.405   4.564   5.124 -3.1760 -0.5422  3.3315
   38DOPC  H18S 5196   7.235   4.530   5.067 -0.0480 -0.4996  2.2509
   38DOPC  H18T 5197   7.302   4.696   5.053 -1.1335 -0.0769 -1.3649
   38DOPC   C33 5198   6.251   4.128   4.869  0.0526  0.1064 -1.0477
   38DOPC   H3X 5199   6.146   4.140   4.905 -0.6704 -2.9517 -1.8266
   38DOPC   H3Y 5200   6.251   4.032   4.812 -2.1734  0.6843 -2.1199
   38DOPC   C34 5201   6.265   4.249   4.783 -0.1933  0.3053 -0.5763
   38DOPC   H4X 5202   6.370   4.245   4.746 -0.0503 -2.6420 -0.0746
   38DOPC   H4Y 5203   6.248   4.339   4.845  1.8334 -0.5992  1.4200
   38DOPC   C35 5204   6.173   4.264   4.656  0.0275 -0.1162  0.1008
   38DOPC   H5X 5205   6.066   4.280   4.680  0.4000  0.6692  1.3546
   38DOPC   H5Y 5206   6.176   4.171   4.595 -0.9098 -0.3565  0.4031
   38DOPC   C36 5207   6.221   4.385   4.570 -0.5591 -0.1766 -0.2077
   38DOPC   H6X 5208   6.175   4.471   4.624  0.7051  0.1360  0.4093
   38DOPC   H6Y 5209   6.331   4.397   4.586 -0.5821 -2.3353  2.0237
   38DOPC   C37 5210   6.188   4.378   4.422 -0.4397 -0.0423  1.1612
   38DOPC   H7X 5211   6.245   4.464   4.381  1.8516 -1.4415  1.2785
   38DOPC   H7Y 5212   6.225   4.279   4.388 -0.1312  1.3425 -3.1325
   38DOPC   C38 5213   6.047   4.364   4.391  0.3011  0.0480  0.0457
   38DOPC   H8X 5214   5.987   4.446   4.436 -1.6296 -0.3753 -1.5966
   38DOPC   H8Y 5215   6.006   4.272   4.438  0.6804 -0.5546 -0.7730
   38DOPC   C39 5216   6.027   4.355   4.242 -0.4982  0.6034  0.4910
   38DOPC   H9X 5217   6.106   4.303   4.186 -0.2385  1.3102  0.1795
   38DOPC  C310 5218   5.917   4.401   4.171 -0.5889 -0.3312 -0.5181
   38DOPC  H10X 5219   5.910   4.374   4.065 -2.1929 -0.2395 -0.4484
   38DOPC  C311 5220   5.796   4.473   4.235 -1.0894  0.5798  0.4379
   38DOPC  H11X 5221   5.802   4.582   4.213  0.7598  0.4901  0.3047
   38DOPC  H11Y 5222   5.809   4.472   4.345 -1.4229 -0.6877  0.4804
   38DOPC  C312 5223   5.663   4.402   4.212 -0.0564 -0.0878  0.0360
   38DOPC  H12X 5224   5.667   4.311   4.276 -0.0758 -1.8013 -2.2786
   38DOPC  H12Y 5225   5.652   4.370   4.106 -0.2632  1.3706 -0.4099
   38DOPC  C313 5226   5.540   4.486   4.260 -0.4408 -0.4515  0.5607
   38DOPC  H13X 5227   5.447   4.425   4.254 -0.4579 -0.2981 -1.8486
   38DOPC  H13Y 5228   5.557   4.530   4.361 -2.5063  1.1192  0.3103
   38DOPC  C314 5229   5.518   4.615   4.175 -0.0250 -0.2768 -0.6250
   38DOPC  H14X 5230   5.609   4.677   4.191 -0.1107 -0.2997 -0.0498
   38DOPC  H14Y 5231   5.498   4.590   4.068  0.2887 -1.5488 -0.4031
   38DOPC  C315 5232   5.396   4.694   4.228  0.1081  0.3082 -0.9733
   38DOPC  H15X 5233   5.401   4.797   4.185  1.8258  0.6039 -0.1781
   38DOPC  H15Y 5234   5.398   4.711   4.338  0.2765 -1.0370 -0.7534
   38DOPC  C316 5235   5.258   4.630   4.201  0.2740 -0.3705 -0.0633
   38DOPC  H16X 5236   5.250   4.581   4.101  3.2922 -0.0199 -0.5659
   38DOPC  H16Y 5237   5.235   4.551   4.275 -0.1983  0.1354  0.3383
   38DOPC  C317 5238   5.142   4.732   4.208 -0.2767 -0.1304 -0.0319
   38DOPC  H17X 5239   5.162   4.800   4.294  2.4515 -0.3202 -0.4277
   38DOPC  H17Y 5240   5.144   4.806   4.126  1.1576  0.8999  0.8744
   38DOPC  C318 5241   5.005   4.669   4.236 -0.1407  1.0815 -0.2035
   38DOPC  H18X 5242   4.997   4.650   4.345  1.7635  0.0128 -0.2176
   38DOPC  H18Y 5243   4.922   4.740   4.215 -1.6691 -0.8618 -1.0202
   38DOPC  H18Z 5244   4.980   4.577   4.179  1.2992 -0.8353  2.1098
   39DOPC     N 5245   2.989   6.237   6.147  0.0175 -0.8970  0.1199
   39DOPC   C12 5246   3.034   6.313   6.024  0.6479 -0.7118 -0.3655
   39DOPC  H12A 5247   2.964   6.392   6.001  1.6422  0.4762  0.5400
   39DOPC  H12B 5248   3.032   6.246   5.939 -1.9190  0.0420 -1.0019
   39DOPC   C13 5249   2.857   6.173   6.123  0.0917 -0.1202  0.0608
   39DOPC  H13A 5250   2.818   6.138   6.217 -0.0247  0.2829  0.1641
   39DOPC  H13B 5251   2.789   6.240   6.072  0.4115  0.6118  0.5812
   39DOPC  H13C 5252   2.861   6.094   6.049 -1.5909  0.3000 -0.5372
   39DOPC   C14 5253   2.972   6.326   6.272 -0.2643  0.0829 -0.2167
   39DOPC  H14A 5254   2.911   6.413   6.253 -1.2898 -0.2655  1.3792
   39DOPC  H14B 5255   2.912   6.278   6.347 -0.3967  1.1005  0.3538
   39DOPC  H14C 5256   3.068   6.356   6.312  0.0825 -1.6644  0.3478
   39DOPC   C15 5257   3.086   6.131   6.169 -0.3438  0.1439  0.2573
   39DOPC  H15A 5258   3.178   6.183   6.186  0.7963 -0.7703 -2.4960
   39DOPC  H15B 5259   3.087   6.063   6.085 -0.8912  0.7382 -0.2429
   39DOPC  H15C 5260   3.065   6.071   6.256  0.1230 -0.1702  0.1571
   39DOPC   C11 5261   3.166   6.392   6.029 -0.1760  0.3647 -0.4575
   39DOPC  H11A 5262   3.249   6.324   6.056 -0.1937  1.2172  1.9473
   39DOPC  H11B 5263   3.172   6.423   5.922  0.9250 -0.6786 -0.7220
   39DOPC     P 5264   3.184   6.639   6.080 -0.3124  0.3260  0.2110
   39DOPC   O13 5265   3.333   6.667   6.081  0.4792  0.0721 -0.1306
   39DOPC   O14 5266   3.093   6.720   6.161 -0.1463 -0.1593  0.0168
   39DOPC   O12 5267   3.158   6.492   6.128 -0.1492  0.4992  0.3244
   39DOPC   O11 5268   3.125   6.646   5.932  0.6776  0.5521 -0.6055
   39DOPC    C1 5269   3.146   6.740   5.831  0.6623 -0.8563  0.4308
   39DOPC    HA 5270   3.245   6.790   5.842 -0.5392  1.5510  0.8387
   39DOPC    HB 5271   3.068   6.818   5.834  2.9571  1.5792  2.2611
   39DOPC    C2 5272   3.150   6.672   5.695  0.2931 -0.0885 -0.0753
   39DOPC    HS 5273   3.230   6.597   5.711 -0.2163 -1.4053 -3.0782
   39DOPC   O21 5274   3.174   6.771   5.597 -0.1398  0.4672  0.0595
   39DOPC   C21 5275   3.281   6.757   5.519  0.0727  0.3816  0.2236
   39DOPC   O22 5276   3.359   6.664   5.517 -0.0375 -0.2524 -0.1145
   39DOPC   C22 5277   3.277   6.870   5.413 -0.4964 -0.6741 -0.5059
   39DOPC   H2R 5278   3.320   6.963   5.457 -0.8694 -0.4125 -0.6846
   39DOPC   H2S 5279   3.169   6.891   5.397 -0.7468 -2.7877 -1.9255
   39DOPC    C3 5280   3.019   6.606   5.659 -0.2288 -0.0782 -0.1876
   39DOPC    HX 5281   2.939   6.682   5.656  0.4079  0.6243  0.3800
   39DOPC    HY 5282   2.995   6.545   5.749  1.0129 -0.3114  0.0105
   39DOPC   O31 5283   3.015   6.535   5.536  0.1699 -0.2447 -0.3195
   39DOPC   C31 5284   2.969   6.414   5.531 -0.0723  0.6333 -0.3814
   39DOPC   O32 5285   2.883   6.372   5.610 -0.1483  0.0908  0.3046
   39DOPC   C32 5286   3.036   6.330   5.422 -0.2267 -0.4765 -0.6225
   39DOPC   H2X 5287   3.079   6.394   5.342 -1.6290 -1.5661 -2.3201
   39DOPC   H2Y 5288   3.109   6.278   5.488 -3.0289 -1.1085  2.2567
   39DOPC   C23 5289   3.346   6.838   5.281  0.0499 -0.5873 -0.7825
   39DOPC   H3R 5290   3.322   6.730   5.273  1.4032 -1.1026  1.2817
   39DOPC   H3S 5291   3.454   6.864   5.291 -0.1488  0.5893 -1.5238
   39DOPC   C24 5292   3.299   6.925   5.160 -0.9547 -0.9176 -0.1467
   39DOPC   H4R 5293   3.334   7.026   5.189 -0.7409 -1.3626  1.2082
   39DOPC   H4S 5294   3.189   6.930   5.146 -0.8293 -0.1057 -0.9321
   39DOPC   C25 5295   3.375   6.897   5.031 -0.6624  0.1748 -0.3981
   39DOPC   H5R 5296   3.365   6.793   4.992  0.7672  0.5012 -1.7688
   39DOPC   H5S 5297   3.480   6.926   5.050 -1.1068  0.4708  1.8471
   39DOPC   C26 5298   3.303   6.980   4.918  0.2845 -0.0851  0.2337
   39DOPC   H6R 5299   3.304   7.087   4.946  2.4021  0.7907 -2.6991
   39DOPC   H6S 5300   3.198   6.946   4.911  0.3219  0.0704 -1.4332
   39DOPC   C27 5301   3.380   6.971   4.788 -0.2124  0.9208 -0.6241
   39DOPC   H7R 5302   3.404   6.866   4.763 -0.0161  0.7354  0.3216
   39DOPC   H7S 5303   3.478   7.023   4.795 -0.0779  0.4742  1.4774
   39DOPC   C28 5304   3.304   7.039   4.676  0.0794  0.7093  0.6708
   39DOPC   H8R 5305   3.226   6.963   4.656  1.6216 -1.8902  3.5909
   39DOPC   H8S 5306   3.365   7.058   4.584 -1.5388  3.3494  0.0539
   39DOPC   C29 5307   3.252   7.175   4.715  0.9936  0.7860 -0.0804
   39DOPC   H9R 5308   3.148   7.175   4.753  1.4724 -1.3676  1.4391
   39DOPC  C210 5309   3.310   7.298   4.704  0.1388  0.1071  0.0221
   39DOPC  H10R 5310   3.240   7.380   4.727 -0.4237  0.1899 -1.8209
   39DOPC  C211 5311   3.454   7.332   4.669 -0.3779 -0.4873  0.2591
   39DOPC  H11R 5312   3.475   7.375   4.568  1.0962  1.1149  1.1894
   39DOPC  H11S 5313   3.505   7.233   4.660 -1.2926 -1.0648  1.2477
   39DOPC  C212 5314   3.533   7.419   4.767 -0.3455 -0.3896 -0.7742
   39DOPC  H12R 5315   3.524   7.526   4.738  0.0276  0.0943  0.7781
   39DOPC  H12S 5316   3.640   7.394   4.761  1.2530  4.1305  2.6480
   39DOPC  C213 5317   3.500   7.404   4.915 -0.6396 -0.2392 -0.3905
   39DOPC  H13R 5318   3.515   7.296   4.938  2.9034 -0.3013 -2.2848
   39DOPC  H13S 5319   3.400   7.444   4.944 -0.4265 -0.5132  0.7780
   39DOPC  C214 5320   3.600   7.473   5.009 -0.4353 -0.5288 -0.5946
   39DOPC  H14R 5321   3.600   7.574   4.963  0.0536  0.3151  1.1761
   39DOPC  H14S 5322   3.697   7.419   5.017 -0.7513 -0.8382  1.8390
   39DOPC  C215 5323   3.550   7.469   5.157 -0.3662  0.0792 -0.5989
   39DOPC  H15R 5324   3.565   7.370   5.204  0.7151  0.7633  0.5458
   39DOPC  H15S 5325   3.444   7.492   5.176  0.3809  2.3206  1.2623
   39DOPC  C216 5326   3.624   7.571   5.241  0.0617 -0.0472 -0.3293
   39DOPC  H16R 5327   3.581   7.573   5.344  0.7168 -0.5783 -0.0395
   39DOPC  H16S 5328   3.620   7.668   5.186  2.0315 -0.3153 -1.0187
   39DOPC  C217 5329   3.770   7.541   5.270 -0.6104  0.5368 -1.0963
   39DOPC  H17R 5330   3.816   7.509   5.174  2.7236 -1.2066  0.8663
   39DOPC  H17S 5331   3.783   7.457   5.342  0.1192  0.3561 -1.4281
   39DOPC  C218 5332   3.845   7.659   5.325  0.2482 -0.8241  0.2581
   39DOPC  H18R 5333   3.793   7.678   5.421  0.4503  1.8804 -0.0886
   39DOPC  H18S 5334   3.846   7.745   5.254 -0.6058 -1.2054 -0.2309
   39DOPC  H18T 5335   3.952   7.634   5.341  0.4616  0.3031  0.6981
   39DOPC   C33 5336   2.947   6.233   5.349  0.2335 -0.6872  0.0198
   39DOPC   H3X 5337   2.879   6.189   5.425  1.2170 -0.3809  1.1056
   39DOPC   H3Y 5338   3.018   6.155   5.314  3.6444  2.5700 -0.9117
   39DOPC   C34 5339   2.862   6.287   5.236 -0.2223 -0.8151  0.1687
   39DOPC   H4X 5340   2.937   6.334   5.169 -1.5599 -0.7543 -1.3444
   39DOPC   H4Y 5341   2.789   6.357   5.283  0.6230 -0.5376  1.1270
   39DOPC   C35 5342   2.775   6.191   5.145  0.0603  0.0131  0.1727
   39DOPC   H5X 5343   2.695   6.153   5.212 -0.6278  1.1170  0.0056
   39DOPC   H5Y 5344   2.833   6.103   5.111  1.8125  1.0696  0.3240
   39DOPC   C36 5345   2.713   6.270   5.024  0.6018 -0.1552  0.1158
   39DOPC   H6X 5346   2.624   6.213   4.990 -0.2352  1.3212 -0.2536
   39DOPC   H6Y 5347   2.672   6.369   5.051 -2.1247 -1.5519  1.5275
   39DOPC   C37 5348   2.809   6.252   4.899 -0.0788  0.6999 -0.7015
   39DOPC   H7X 5349   2.914   6.265   4.930  0.7265 -1.5088 -2.2000
   39DOPC   H7Y 5350   2.796   6.142   4.882 -2.0321  0.6440  0.8018
   39DOPC   C38 5351   2.772   6.341   4.783 -0.4514  0.2568  0.6995
   39DOPC   H8X 5352   2.864   6.348   4.720 -0.1040  1.4905  1.3222
   39DOPC   H8Y 5353   2.765   6.441   4.832 -2.6738  0.8621 -0.6882
   39DOPC   C39 5354   2.652   6.293   4.708 -0.3799 -0.2442  0.1035
   39DOPC   H9X 5355   2.562   6.324   4.763 -0.6352 -3.1542  1.4836
   39DOPC  C310 5356   2.644   6.250   4.582 -0.1994  0.4307  0.1890
   39DOPC  H10X 5357   2.544   6.211   4.558  0.9939 -1.5521 -1.8828
   39DOPC  C311 5358   2.766   6.206   4.497  0.2618  0.0044  0.3341
   39DOPC  H11X 5359   2.842   6.286   4.503 -1.9296  2.1193  2.0118
   39DOPC  H11Y 5360   2.733   6.212   4.391 -0.1737  2.1765  0.5471
   39DOPC  C312 5361   2.841   6.074   4.520  1.3882 -0.3543 -0.0393
   39DOPC  H12X 5362   2.784   5.981   4.497  0.6977 -0.1842  0.8952
   39DOPC  H12Y 5363   2.880   6.061   4.623  0.9025  0.9942  0.3282
   39DOPC  C313 5364   2.971   6.070   4.433  0.2591 -0.0013  0.0485
   39DOPC  H13X 5365   3.035   6.149   4.475 -0.8290 -0.5581  2.9655
   39DOPC  H13Y 5366   3.031   5.985   4.473  0.6105  0.6195  0.8585
   39DOPC  C314 5367   2.964   6.076   4.275  0.7618 -0.5108 -0.2171
   39DOPC  H14X 5368   2.900   5.992   4.238 -2.0303 -0.0133  2.9953
   39DOPC  H14Y 5369   2.918   6.175   4.254  1.9149  0.6775  2.4251
   39DOPC  C315 5370   3.108   6.073   4.212  0.2729  0.0960  0.4249
   39DOPC  H15X 5371   3.099   6.060   4.102 -2.5513  3.2571  0.1152
   39DOPC  H15Y 5372   3.163   5.985   4.253 -0.8503 -0.3649  1.0023
   39DOPC  C316 5373   3.192   6.207   4.211  0.5773  0.6946 -0.3191
   39DOPC  H16X 5374   3.161   6.278   4.291  2.0927  2.6471 -1.3675
   39DOPC  H16Y 5375   3.300   6.182   4.211  0.7048  0.7521  3.1066
   39DOPC  C317 5376   3.175   6.293   4.080  0.3008  0.1303 -0.1287
   39DOPC  H17X 5377   3.075   6.280   4.033  1.3892 -0.5031 -2.4018
   39DOPC  H17Y 5378   3.181   6.400   4.110 -1.5153  0.5015 -0.9147
   39DOPC  C318 5379   3.279   6.263   3.977 -0.2732 -0.1216  0.2576
   39DOPC  H18X 5380   3.378   6.294   4.016  0.3721  0.3101 -1.6317
   39DOPC  H18Y 5381   3.283   6.152   3.969 -1.2285 -0.1819  0.4369
   39DOPC  H18Z 5382   3.264   6.316   3.880  0.1128  1.3510  0.9730
   40DOPC     N 5383   7.564   8.560   6.293 -0.6885  0.3120 -0.0009
   40DOPC   C12 5384   7.482   8.504   6.181  0.0066  0.2056 -0.0171
   40DOPC  H12A 5385   7.419   8.430   6.227 -0.6585  1.4324  1.0971
   40DOPC  H12B 5386   7.549   8.449   6.115  0.3734  2.4164 -1.6072
   40DOPC   C13 5387   7.480   8.629   6.397  0.5355  0.2674 -0.2742
   40DOPC  H13A 5388   7.395   8.566   6.418  0.0342  0.8318 -0.5758
   40DOPC  H13B 5389   7.528   8.653   6.490 -0.1328 -1.0158  0.4235
   40DOPC  H13C 5390   7.427   8.709   6.346 -0.8126 -0.6733 -0.4225
   40DOPC   C14 5391   7.656   8.661   6.227  0.8010  0.0986  0.5392
   40DOPC  H14A 5392   7.602   8.730   6.164  2.5837  1.1163  0.0369
   40DOPC  H14B 5393   7.690   8.722   6.310 -2.1402 -0.1419  2.0408
   40DOPC  H14C 5394   7.739   8.619   6.172 -1.2976 -3.7500 -0.0248
   40DOPC   C15 5395   7.647   8.457   6.367  1.0494 -0.0293  0.1902
   40DOPC  H15A 5396   7.591   8.396   6.437 -0.8236 -0.2329 -1.3800
   40DOPC  H15B 5397   7.726   8.505   6.422  0.9012  0.7468 -0.2640
   40DOPC  H15C 5398   7.703   8.390   6.304 -0.5260  0.7710 -2.2161
   40DOPC   C11 5399   7.403   8.606   6.099  0.6034 -0.2794 -0.6187
   40DOPC  H11A 5400   7.475   8.668   6.041  2.3412 -1.2618  0.3928
   40DOPC  H11B 5401   7.346   8.548   6.023  0.8629 -1.2518 -0.0971
   40DOPC     P 5402   7.288   8.837   6.140  0.3105 -0.1461  0.1608
   40DOPC   O13 5403   7.412   8.901   6.102 -0.1421 -0.2832 -0.0256
   40DOPC   O14 5404   7.202   8.896   6.244 -0.0777  0.3348  0.1217
   40DOPC   O12 5405   7.311   8.679   6.172  0.2686 -0.2053 -0.1113
   40DOPC   O11 5406   7.196   8.822   6.011  0.0701 -0.0296 -0.0504
   40DOPC    C1 5407   7.234   8.777   5.880  0.0221  0.6136 -0.1790
   40DOPC    HA 5408   7.149   8.714   5.846 -0.0954 -0.1703  1.4867
   40DOPC    HB 5409   7.321   8.709   5.874 -1.5979 -1.4573 -4.8889
   40DOPC    C2 5410   7.234   8.890   5.779  0.1361 -0.4295  0.3986
   40DOPC    HS 5411   7.282   8.978   5.827 -0.3034 -0.0810  0.1937
   40DOPC   O21 5412   7.100   8.926   5.746 -0.1244  0.1060 -0.1247
   40DOPC   C21 5413   7.071   9.053   5.716  0.1971 -0.3345 -0.0443
   40DOPC   O22 5414   7.145   9.152   5.726  0.0315  0.8062 -0.3566
   40DOPC   C22 5415   6.924   9.050   5.672  0.5662  0.4543  0.0535
   40DOPC   H2R 5416   6.875   9.030   5.769 -0.2011 -0.1088 -0.4354
   40DOPC   H2S 5417   6.915   8.962   5.605 -1.7378 -1.2038  2.3480
   40DOPC    C3 5418   7.324   8.845   5.664  0.2346 -0.6435 -0.0105
   40DOPC    HX 5419   7.291   8.747   5.623  2.4801 -1.7721  0.7001
   40DOPC    HY 5420   7.426   8.832   5.706  0.9731  1.5737 -0.9787
   40DOPC   O31 5421   7.330   8.944   5.565 -0.9031 -0.0365 -0.0369
   40DOPC   C31 5422   7.419   9.044   5.581 -0.0085 -0.0815 -0.5872
   40DOPC   O32 5423   7.503   9.057   5.667  0.2723  0.2101  0.0656
   40DOPC   C32 5424   7.403   9.155   5.479 -0.0693 -0.6708  0.3123
   40DOPC   H2X 5425   7.324   9.226   5.513 -0.2527 -1.0763  0.7384
   40DOPC   H2Y 5426   7.490   9.223   5.475  1.6631 -2.7773  0.7425
   40DOPC   C23 5427   6.872   9.186   5.624 -0.3890 -0.7230  0.6815
   40DOPC   H3R 5428   6.884   9.250   5.714  3.5915 -1.8503  1.1292
   40DOPC   H3S 5429   6.765   9.182   5.593  0.0772  1.7173 -1.6421
   40DOPC   C24 5430   6.946   9.235   5.496 -0.5497  0.0620 -0.9805
   40DOPC   H4R 5431   7.052   9.260   5.521 -0.7587 -0.8481  1.0336
   40DOPC   H4S 5432   6.894   9.325   5.457 -2.6832 -1.2131 -1.2511
   40DOPC   C25 5433   6.954   9.128   5.382 -0.5099 -0.1792  0.1373
   40DOPC   H5R 5434   6.853   9.082   5.369 -0.3290 -0.5116 -0.1137
   40DOPC   H5S 5435   7.015   9.041   5.413  1.8885  1.0416 -0.8609
   40DOPC   C26 5436   7.012   9.184   5.251 -0.2299 -0.3349  0.9794
   40DOPC   H6R 5437   7.113   9.226   5.264  0.1297 -0.8659 -0.0019
   40DOPC   H6S 5438   6.935   9.255   5.215 -1.7946 -0.9945  2.8217
   40DOPC   C27 5439   7.030   9.083   5.136  0.2793  0.2358  0.0677
   40DOPC   H7R 5440   6.924   9.056   5.115 -0.5444  4.1231 -1.6263
   40DOPC   H7S 5441   7.070   8.989   5.179  0.8350 -0.8249 -2.5743
   40DOPC   C28 5442   7.102   9.132   5.007 -0.2539  0.2939 -0.6488
   40DOPC   H8R 5443   7.132   9.040   4.952  1.9467  1.4142 -1.4245
   40DOPC   H8S 5444   7.202   9.167   5.040  0.2297  0.8029 -2.5478
   40DOPC   C29 5445   7.025   9.224   4.927 -0.4430 -1.0719  0.0775
   40DOPC   H9R 5446   6.988   9.312   4.982  1.3698  0.1384 -0.5255
   40DOPC  C210 5447   7.023   9.243   4.797  0.7321  0.0667  0.5070
   40DOPC  H10R 5448   6.954   9.320   4.758  0.8264  0.7962  1.7221
   40DOPC  C211 5449   7.084   9.178   4.678  0.6334  0.3239  0.0824
   40DOPC  H11R 5450   6.997   9.151   4.615  0.2718 -0.5412  0.9263
   40DOPC  H11S 5451   7.146   9.090   4.708  0.1366  0.7289  2.4741
   40DOPC  C212 5452   7.170   9.276   4.590 -0.2011  0.9376  0.5183
   40DOPC  H12R 5453   7.247   9.318   4.658  0.1113 -0.1299  0.8378
   40DOPC  H12S 5454   7.105   9.362   4.562 -1.4512 -0.5177 -1.2861
   40DOPC  C213 5455   7.235   9.216   4.459  0.4845  0.5095 -0.2340
   40DOPC  H13R 5456   7.158   9.162   4.399  1.7481  0.3247 -1.7652
   40DOPC  H13S 5457   7.291   9.129   4.500 -0.8401 -0.1296  0.2776
   40DOPC  C214 5458   7.307   9.318   4.375 -0.0921 -0.7910  0.4629
   40DOPC  H14R 5459   7.361   9.267   4.293  1.3516 -1.7269  1.9484
   40DOPC  H14S 5460   7.385   9.360   4.442  0.7618 -0.9811 -0.3935
   40DOPC  C215 5461   7.222   9.429   4.307  0.0631  0.1143 -0.8597
   40DOPC  H15R 5462   7.166   9.491   4.380  0.3967 -0.3916 -0.1605
   40DOPC  H15S 5463   7.141   9.379   4.249 -1.9170 -0.5015  2.1793
   40DOPC  C216 5464   7.307   9.512   4.203 -0.5197  0.0473  0.0978
   40DOPC  H16R 5465   7.366   9.453   4.131 -1.3814  3.0926 -3.4513
   40DOPC  H16S 5466   7.368   9.584   4.261 -2.1756 -0.8800  3.2616
   40DOPC  C217 5467   7.209   9.598   4.119 -0.4596  0.2989 -0.2041
   40DOPC  H17R 5468   7.139   9.650   4.188  1.3392  1.4529  0.7992
   40DOPC  H17S 5469   7.157   9.530   4.048 -0.2726 -0.0633  0.0004
   40DOPC  C218 5470   7.256   9.711   4.035  0.2710 -0.1435  0.0463
   40DOPC  H18R 5471   7.323   9.773   4.097  1.2033 -0.8237 -0.2600
   40DOPC  H18S 5472   7.167   9.769   4.002 -0.4992 -1.2210  0.1531
   40DOPC  H18T 5473   7.315   9.675   3.948  2.8433 -1.4787  2.2151
   40DOPC   C33 5474   7.381   9.102   5.328  0.5385 -0.3375 -0.6745
   40DOPC   H3X 5475   7.343   9.190   5.271  0.2649 -0.6686 -1.0057
   40DOPC   H3Y 5476   7.304   9.022   5.318 -1.6390  1.4763  0.6436
   40DOPC   C34 5477   7.516   9.060   5.275 -0.3183 -0.1297  0.8398
   40DOPC   H4X 5478   7.559   8.983   5.344  1.2192 -0.7614 -0.7666
   40DOPC   H4Y 5479   7.584   9.147   5.287 -1.2801  0.6962  0.3770
   40DOPC   C35 5480   7.527   9.009   5.129 -0.6463 -0.1093 -0.1248
   40DOPC   H5X 5481   7.452   8.931   5.104 -2.6185  1.7037 -0.1019
   40DOPC   H5Y 5482   7.627   8.961   5.119 -1.0925 -0.7012 -2.5533
   40DOPC   C36 5483   7.509   9.121   5.036  0.0618  0.1471  0.7327
   40DOPC   H6X 5484   7.403   9.157   5.039 -0.3850 -1.0444 -0.1639
   40DOPC   H6Y 5485   7.582   9.201   5.063  1.4142  0.0342 -2.1981
   40DOPC   C37 5486   7.550   9.087   4.886 -0.0522 -0.4340  0.6623
   40DOPC   H7X 5487   7.562   9.187   4.838 -0.6820 -0.1047  1.1695
   40DOPC   H7Y 5488   7.646   9.031   4.888  0.1668 -0.0697  0.6369
   40DOPC   C38 5489   7.437   9.011   4.816 -0.0871 -0.7403  0.7510
   40DOPC   H8X 5490   7.352   9.083   4.814 -0.1562 -0.8310 -0.0277
   40DOPC   H8Y 5491   7.392   8.935   4.884 -1.6859 -0.8732 -0.3844
   40DOPC   C39 5492   7.462   8.967   4.676  0.2884  0.4717 -0.7923
   40DOPC   H9X 5493   7.521   9.036   4.614 -0.5163  1.5264 -0.4217
   40DOPC  C310 5494   7.418   8.861   4.617 -0.6263  0.5830 -0.6650
   40DOPC  H10X 5495   7.454   8.839   4.516 -0.9949 -1.0067 -0.4844
   40DOPC  C311 5496   7.342   8.741   4.674  0.4059  0.1434  0.0411
   40DOPC  H11X 5497   7.237   8.735   4.638 -0.2509  0.1458  1.8601
   40DOPC  H11Y 5498   7.331   8.744   4.785  1.0761 -0.9079  0.1529
   40DOPC  C312 5499   7.419   8.611   4.660  0.0155  0.5349 -0.0395
   40DOPC  H12X 5500   7.516   8.604   4.712 -0.6942 -0.8602  1.1738
   40DOPC  H12Y 5501   7.438   8.593   4.552  1.2118 -0.3184  0.2959
   40DOPC  C313 5502   7.348   8.497   4.717 -0.2086  0.6259 -0.3791
   40DOPC  H13X 5503   7.353   8.505   4.828 -0.4588 -0.5592 -0.2670
   40DOPC  H13Y 5504   7.242   8.493   4.684 -0.0623  2.0407 -1.0785
   40DOPC  C314 5505   7.408   8.359   4.679 -0.4250  0.0345  0.4325
   40DOPC  H14X 5506   7.359   8.346   4.580  0.1121  0.7970  0.0560
   40DOPC  H14Y 5507   7.518   8.359   4.667 -0.2029 -2.3815  1.8954
   40DOPC  C315 5508   7.362   8.257   4.779 -0.1091  0.1715 -0.7518
   40DOPC  H15X 5509   7.251   8.261   4.783 -0.1027  0.1631 -0.5731
   40DOPC  H15Y 5510   7.390   8.292   4.880 -1.1689  1.2280 -0.7962
   40DOPC  C316 5511   7.407   8.114   4.744  0.0462  0.0650 -0.1467
   40DOPC  H16X 5512   7.364   8.092   4.644 -1.1054  4.4621 -0.8114
   40DOPC  H16Y 5513   7.518   8.103   4.745 -0.0308 -0.9002 -0.6324
   40DOPC  C317 5514   7.353   8.011   4.837  0.1754 -0.8644 -0.1464
   40DOPC  H17X 5515   7.399   8.037   4.935  0.3649 -0.0977 -0.4283
   40DOPC  H17Y 5516   7.244   8.031   4.845  0.3663 -0.1189  0.8378
   40DOPC  C318 5517   7.394   7.872   4.789 -0.3993  0.2837 -0.5224
   40DOPC  H18X 5518   7.349   7.862   4.688 -1.1001  4.5606 -0.7970
   40DOPC  H18Y 5519   7.504   7.869   4.774 -0.5640 -0.9297 -1.7398
   40DOPC  H18Z 5520   7.370   7.792   4.862  0.5168  1.0493  0.6397
   41DOPC     N 5521   6.504  10.953   6.311 -0.8578  0.4112  0.2730
   41DOPC   C12 5522   6.547  10.906   6.175  0.0218 -0.0386 -0.6622
   41DOPC  H12A 5523   6.654  10.900   6.179 -0.0179 -0.1962  2.3448
   41DOPC  H12B 5524   6.507  10.988   6.116  0.3936  0.3721 -0.3490
   41DOPC   C13 5525   6.355  10.955   6.313  0.3729  0.3263  0.8556
   41DOPC  H13A 5526   6.312  11.014   6.233  0.9338  1.9980  1.7593
   41DOPC  H13B 5527   6.315  10.854   6.312 -1.3364  0.6695 -5.0669
   41DOPC  H13C 5528   6.321  10.992   6.408  1.1950 -2.2966  2.2830
   41DOPC   C14 5529   6.568  11.088   6.337  0.2153 -0.1396 -0.1664
   41DOPC  H14A 5530   6.544  11.134   6.432  2.1392 -1.2789  0.9355
   41DOPC  H14B 5531   6.675  11.072   6.346  0.2350 -0.4690 -0.9329
   41DOPC  H14C 5532   6.545  11.164   6.264  0.8578  1.7156  1.4667
   41DOPC   C15 5533   6.552  10.866   6.422 -0.2089 -0.6437 -0.2931
   41DOPC  H15A 5534   6.658  10.881   6.425 -0.6254  3.2622  0.9352
   41DOPC  H15B 5535   6.527  10.762   6.407 -1.4720 -1.0312  3.4941
   41DOPC  H15C 5536   6.515  10.898   6.519 -1.6534  0.8194 -1.2559
   41DOPC   C11 5537   6.507  10.759   6.123 -0.0417 -0.6312  0.0105
   41DOPC  H11A 5538   6.396  10.759   6.112 -0.0533  2.1222 -0.6683
   41DOPC  H11B 5539   6.559  10.750   6.026  1.8308 -1.5427  1.0466
   41DOPC     P 5540   6.473  10.515   6.221 -0.3469 -0.1359  0.2432
   41DOPC   O13 5541   6.324  10.543   6.239 -0.2358 -0.1589 -0.3189
   41DOPC   O14 5542   6.542  10.428   6.320 -0.0330  0.1530  0.5258
   41DOPC   O12 5543   6.548  10.662   6.218 -0.0144 -0.0822 -0.1239
   41DOPC   O11 5544   6.499  10.461   6.075 -0.1407  0.5630  0.1858
   41DOPC    C1 5545   6.631  10.469   6.019  0.3761 -0.0739  0.7467
   41DOPC    HA 5546   6.697  10.392   6.064 -0.7893 -1.7897 -0.3193
   41DOPC    HB 5547   6.675  10.569   6.039 -1.6076  1.2491 -1.0124
   41DOPC    C2 5548   6.624  10.436   5.863  0.4034  0.0311 -0.5961
   41DOPC    HS 5549   6.729  10.439   5.826 -0.0537  0.9516 -1.8816
   41DOPC   O21 5550   6.541  10.530   5.802  0.1217  0.0611  0.3761
   41DOPC   C21 5551   6.611  10.644   5.776  0.7410  0.2426 -0.2792
   41DOPC   O22 5552   6.726  10.669   5.805 -0.1938 -0.1668  1.0251
   41DOPC   C22 5553   6.515  10.735   5.715  0.0678 -0.0819  0.6150
   41DOPC   H2R 5554   6.535  10.832   5.767 -0.6335 -0.4706  1.6501
   41DOPC   H2S 5555   6.410  10.703   5.727 -0.4953  1.4508  0.0404
   41DOPC    C3 5556   6.562  10.297   5.844  0.1695  0.1388 -0.0936
   41DOPC    HX 5557   6.464  10.299   5.897  1.0987 -0.0080  1.7151
   41DOPC    HY 5558   6.623  10.219   5.894 -0.4205 -1.0763 -1.2109
   41DOPC   O31 5559   6.538  10.265   5.703 -0.4732 -0.4436  0.3837
   41DOPC   C31 5560   6.646  10.245   5.637 -0.4815 -0.2536  0.5317
   41DOPC   O32 5561   6.761  10.241   5.686 -0.1975  0.2257 -0.3074
   41DOPC   C32 5562   6.608  10.216   5.497 -0.2334 -0.3245  0.1428
   41DOPC   H2X 5563   6.530  10.137   5.497  0.9571 -1.5366  0.1634
   41DOPC   H2Y 5564   6.574  10.317   5.468  1.5909  0.3478  0.2089
   41DOPC   C23 5565   6.543  10.745   5.564  0.4741  0.1229 -0.5425
   41DOPC   H3R 5566   6.649  10.775   5.551  0.4481 -0.1854 -1.4889
   41DOPC   H3S 5567   6.480  10.825   5.518  0.4058 -1.0839 -2.6640
   41DOPC   C24 5568   6.512  10.629   5.479 -0.7185  0.1376 -0.0499
   41DOPC   H4R 5569   6.404  10.603   5.485 -0.5397 -0.4031  0.9297
   41DOPC   H4S 5570   6.559  10.536   5.516 -0.3814  0.9119  1.5612
   41DOPC   C25 5571   6.540  10.649   5.330 -0.4275 -0.3385  0.2693
   41DOPC   H5R 5572   6.596  10.568   5.277 -1.3626  0.3293 -1.8662
   41DOPC   H5S 5573   6.588  10.748   5.313  1.1084 -1.2796 -1.2150
   41DOPC   C26 5574   6.416  10.658   5.238  0.6134  0.0171  0.3561
   41DOPC   H6R 5575   6.329  10.717   5.273 -0.0059 -0.8663  0.3593
   41DOPC   H6S 5576   6.367  10.558   5.230  1.8009 -0.6206  0.8678
   41DOPC   C27 5577   6.449  10.702   5.091  0.2381 -0.4999  0.0124
   41DOPC   H7R 5578   6.528  10.630   5.061  0.2382 -0.6143  0.2791
   41DOPC   H7S 5579   6.479  10.809   5.094 -0.6012 -0.2641  0.4198
   41DOPC   C28 5580   6.332  10.702   4.995  0.4524  0.1576  0.1302
   41DOPC   H8R 5581   6.368  10.748   4.900 -0.5096  0.5503 -0.0564
   41DOPC   H8S 5582   6.254  10.776   5.022 -1.8344 -2.3392  0.7532
   41DOPC   C29 5583   6.266  10.568   4.954 -0.6131  0.3024 -0.3388
   41DOPC   H9R 5584   6.342  10.492   4.927  1.1596  1.1987  1.7933
   41DOPC  C210 5585   6.130  10.539   4.950  0.2239 -0.1448  0.5346
   41DOPC  H10R 5586   6.092  10.444   4.908 -2.7943  0.6353  1.2356
   41DOPC  C211 5587   6.024  10.644   4.988  0.9158 -0.0585  0.5126
   41DOPC  H11R 5588   5.999  10.706   4.900  0.9656 -0.8596 -0.0777
   41DOPC  H11S 5589   6.063  10.704   5.073  0.4660 -1.8527  2.0493
   41DOPC  C212 5590   5.888  10.585   5.030 -0.1380  0.0611 -0.5073
   41DOPC  H12R 5591   5.831  10.544   4.944 -0.1957 -0.8153 -0.0648
   41DOPC  H12S 5592   5.823  10.674   5.046 -0.9109 -0.5940  0.0961
   41DOPC  C213 5593   5.887  10.504   5.157 -0.0214 -0.6411  0.0032
   41DOPC  H13R 5594   5.958  10.552   5.228 -2.3428  1.6972  0.8933
   41DOPC  H13S 5595   5.909  10.398   5.134 -0.3873 -0.8065  0.4009
   41DOPC  C214 5596   5.742  10.505   5.219 -0.6150 -0.6979  0.1879
   41DOPC  H14R 5597   5.738  10.408   5.274 -0.7929  1.0768  3.5797
   41DOPC  H14S 5598   5.675  10.495   5.131  0.2741 -0.5360 -0.5204
   41DOPC  C215 5599   5.708  10.625   5.307 -0.0274 -0.3098 -0.7061
   41DOPC  H15R 5600   5.732  10.721   5.256 -1.3811  0.0876 -0.6463
   41DOPC  H15S 5601   5.778  10.630   5.392 -0.9662  1.4606  0.0101
   41DOPC  C216 5602   5.554  10.637   5.344  0.3877 -0.1081 -0.0820
   41DOPC  H16R 5603   5.513  10.539   5.377 -3.5367  2.4781  3.8548
   41DOPC  H16S 5604   5.510  10.674   5.249 -0.1505  0.5529  0.4138
   41DOPC  C217 5605   5.528  10.733   5.460  0.5621 -0.4694  0.0998
   41DOPC  H17R 5606   5.544  10.830   5.409  1.3449 -1.3243 -1.3389
   41DOPC  H17S 5607   5.607  10.726   5.539  0.4094  1.9392  0.5506
   41DOPC  C218 5608   5.390  10.716   5.521  0.8957 -0.0057  0.2887
   41DOPC  H18R 5609   5.375  10.797   5.596  3.4346 -1.1603  2.1929
   41DOPC  H18S 5610   5.381  10.628   5.588 -2.0018 -1.9210 -2.3241
   41DOPC  H18T 5611   5.303  10.717   5.451 -0.0856 -1.7985  1.4117
   41DOPC   C33 5612   6.720  10.163   5.396 -0.2026  0.2301 -0.0125
   41DOPC   H3X 5613   6.749  10.069   5.448  2.3795 -0.8577 -3.0626
   41DOPC   H3Y 5614   6.813  10.223   5.399 -0.4548  0.6721 -0.7188
   41DOPC   C34 5615   6.681  10.144   5.254 -0.6520  0.3023 -0.5848
   41DOPC   H4X 5616   6.580  10.100   5.238 -0.4403 -0.4046 -0.0068
   41DOPC   H4Y 5617   6.751  10.069   5.213 -0.7307 -1.0192  1.5415
   41DOPC   C35 5618   6.698  10.276   5.180  0.8792 -0.5151 -0.1726
   41DOPC   H5X 5619   6.799  10.319   5.202  1.0109 -0.8761 -0.0688
   41DOPC   H5Y 5620   6.615  10.343   5.211  0.2060 -2.0733  1.5900
   41DOPC   C36 5621   6.691  10.257   5.023 -0.3067 -0.0842 -0.2063
   41DOPC   H6X 5622   6.779  10.199   4.987 -0.5242  0.1053 -1.0691
   41DOPC   H6Y 5623   6.607  10.188   4.999  0.8419 -1.0880 -1.5356
   41DOPC   C37 5624   6.675  10.372   4.920 -0.2731  0.1879  0.7955
   41DOPC   H7X 5625   6.681  10.324   4.820 -0.9059  1.1986  0.2571
   41DOPC   H7Y 5626   6.577  10.419   4.940 -0.2353 -0.4370  2.5992
   41DOPC   C38 5627   6.780  10.484   4.950  1.2292  0.2360  0.1347
   41DOPC   H8X 5628   6.884  10.454   4.928  1.2153  1.1680 -1.3293
   41DOPC   H8Y 5629   6.761  10.508   5.057 -1.4199  3.5577 -0.8768
   41DOPC   C39 5630   6.746  10.606   4.865  0.1013 -0.2481 -0.2729
   41DOPC   H9X 5631   6.692  10.683   4.923  1.5857  0.1767  0.5993
   41DOPC  C310 5632   6.802  10.632   4.747  0.3401  0.3047 -0.7712
   41DOPC  H10X 5633   6.784  10.728   4.697 -1.6310  0.7493  0.6587
   41DOPC  C311 5634   6.893  10.543   4.666 -0.2961  0.0212 -0.4336
   41DOPC  H11X 5635   6.917  10.454   4.727 -0.1180  0.2160 -0.2185
   41DOPC  H11Y 5636   6.986  10.599   4.641  1.2232 -2.7776 -1.4778
   41DOPC  C312 5637   6.824  10.493   4.540  0.0345 -0.2247  0.4771
   41DOPC  H12X 5638   6.723  10.454   4.565  0.2658 -2.5978 -1.7709
   41DOPC  H12Y 5639   6.871  10.396   4.513  2.8573  0.2786  3.0147
   41DOPC  C313 5640   6.822  10.594   4.422 -0.1954 -0.2103  0.0495
   41DOPC  H13X 5641   6.761  10.684   4.441 -1.3282 -0.5518 -1.6981
   41DOPC  H13Y 5642   6.928  10.621   4.404 -0.5006 -0.0185 -1.6879
   41DOPC  C314 5643   6.776  10.534   4.286 -0.6274  0.2645 -0.3494
   41DOPC  H14X 5644   6.816  10.431   4.283 -0.6493  0.2807 -2.2693
   41DOPC  H14Y 5645   6.666  10.527   4.301 -0.2965 -0.7159  1.9795
   41DOPC  C315 5646   6.827  10.621   4.171  0.2860 -0.2594  0.4676
   41DOPC  H15X 5647   6.829  10.552   4.084  0.9602  1.1306 -0.6459
   41DOPC  H15Y 5648   6.933  10.641   4.199  1.0825 -2.2523 -0.9025
   41DOPC  C316 5649   6.754  10.744   4.137 -0.0449 -0.6736  0.6143
   41DOPC  H16X 5650   6.647  10.715   4.137 -0.3181  0.2539 -0.1573
   41DOPC  H16Y 5651   6.760  10.821   4.217  0.5499 -0.9462  0.8317
   41DOPC  C317 5652   6.793  10.806   4.001 -0.1487  0.1679  0.0557
   41DOPC  H17X 5653   6.895  10.849   3.991 -0.8394  1.4860 -2.0961
   41DOPC  H17Y 5654   6.786  10.729   3.921 -0.4104  1.3007 -1.0357
   41DOPC  C318 5655   6.701  10.925   3.960 -0.1185  0.0981 -0.3272
   41DOPC  H18X 5656   6.598  10.886   3.944  0.2396 -0.8985 -0.3208
   41DOPC  H18Y 5657   6.703  11.001   4.041  2.9381  0.4878 -0.6737
   41DOPC  H18Z 5658   6.745  10.982   3.875  1.3381  2.1794  1.7084
   42DOPC     N 5659   2.470   9.827   6.434  0.1263 -0.0670  0.3364
   42DOPC   C12 5660   2.377   9.714   6.391 -0.5602  0.3956  0.3343
   42DOPC  H12A 5661   2.299   9.695   6.464 -1.2616  0.1271 -0.4604
   42DOPC  H12B 5662   2.437   9.624   6.390 -1.3324 -0.1371 -0.8886
   42DOPC   C13 5663   2.587   9.855   6.350  0.1954 -0.6104  0.6994
   42DOPC  H13A 5664   2.558   9.861   6.245 -1.5343 -0.6853  1.1363
   42DOPC  H13B 5665   2.637   9.948   6.372  2.0422 -0.6716 -2.5534
   42DOPC  H13C 5666   2.661   9.777   6.351 -0.4423 -1.3031 -0.9544
   42DOPC   C14 5667   2.520   9.804   6.576 -0.0240  0.3021 -0.2995
   42DOPC  H14A 5668   2.435   9.803   6.642 -0.3057  1.3578 -0.6259
   42DOPC  H14B 5669   2.578   9.713   6.581  0.0172  0.3430 -0.0203
   42DOPC  H14C 5670   2.583   9.886   6.607  1.5570 -1.4945  1.5425
   42DOPC   C15 5671   2.386   9.954   6.433 -0.1516 -0.2202 -0.3786
   42DOPC  H15A 5672   2.438  10.037   6.479  2.3898 -1.9070  0.0212
   42DOPC  H15B 5673   2.294   9.938   6.486  0.8697  0.4905  1.7011
   42DOPC  H15C 5674   2.359   9.970   6.329  1.4146 -0.1177 -0.7962
   42DOPC   C11 5675   2.304   9.732   6.256 -0.0185  0.7257 -0.6625
   42DOPC  H11A 5676   2.384   9.774   6.190  0.5418  0.4667 -0.1576
   42DOPC  H11B 5677   2.268   9.634   6.219  1.2695  0.1745 -0.5206
   42DOPC     P 5678   2.062   9.787   6.330  0.0155 -0.4457  0.1134
   42DOPC   O13 5679   2.029   9.888   6.436  0.3556 -0.0567  0.3309
   42DOPC   O14 5680   2.064   9.645   6.374 -0.0839 -0.1835 -0.1723
   42DOPC   O12 5681   2.202   9.830   6.267 -0.3257  0.3821 -0.3038
   42DOPC   O11 5682   1.954   9.811   6.214 -0.3398 -0.5154 -0.3370
   42DOPC    C1 5683   1.922   9.937   6.160  0.0325  0.0596 -0.8304
   42DOPC    HA 5684   1.965  10.027   6.208 -2.5755  0.9389  0.0119
   42DOPC    HB 5685   1.812   9.950   6.165  0.1114  1.1828 -1.5933
   42DOPC    C2 5686   1.959   9.957   6.006  0.5362  0.7841 -0.1402
   42DOPC    HS 5687   1.870   9.942   5.942 -0.5540 -0.9099  1.6491
   42DOPC   O21 5688   2.070   9.879   5.970  0.4950 -0.2837  0.2629
   42DOPC   C21 5689   2.043   9.756   5.913  0.3734  0.0584 -1.1101
   42DOPC   O22 5690   1.931   9.710   5.911  0.2793  0.4233  0.0184
   42DOPC   C22 5691   2.167   9.692   5.856 -0.6681  0.5300  0.4659
   42DOPC   H2R 5692   2.179   9.592   5.904 -4.4681  0.8030  2.3402
   42DOPC   H2S 5693   2.263   9.744   5.879  0.9967 -1.8948 -0.5126
   42DOPC    C3 5694   1.992  10.113   6.000 -0.1984  0.0801  0.3283
   42DOPC    HX 5695   2.079  10.127   6.067 -1.1720  1.0649  1.4324
   42DOPC    HY 5696   1.907  10.174   6.037 -0.4182  0.2334 -0.4127
   42DOPC   O31 5697   2.030  10.159   5.866 -0.3304  0.5319  0.1962
   42DOPC   C31 5698   2.043  10.290   5.844  0.3042  0.3534  0.0469
   42DOPC   O32 5699   2.070  10.370   5.928 -0.1707 -0.6942  0.4034
   42DOPC   C32 5700   2.036  10.308   5.692  0.1477 -0.6107  0.2430
   42DOPC   H2X 5701   2.083  10.222   5.639  0.6752 -0.3543  0.2952
   42DOPC   H2Y 5702   1.933  10.315   5.650  1.2986  1.1296 -2.5457
   42DOPC   C23 5703   2.159   9.677   5.704 -0.5282 -0.5078  0.1600
   42DOPC   H3R 5704   2.067   9.618   5.682 -0.8477  0.8959 -2.5785
   42DOPC   H3S 5705   2.239   9.611   5.665  2.1195  0.6819  3.1169
   42DOPC   C24 5706   2.168   9.819   5.632 -0.2990 -0.2904  0.6198
   42DOPC   H4R 5707   2.265   9.871   5.649 -1.3819  1.3174  2.1692
   42DOPC   H4S 5708   2.091   9.882   5.680  2.5046  1.8909  2.5529
   42DOPC   C25 5709   2.138   9.803   5.483  1.0422  0.1269 -0.6245
   42DOPC   H5R 5710   2.033   9.768   5.485  0.9981  0.2812  1.2176
   42DOPC   H5S 5711   2.200   9.722   5.438  0.2762 -1.2177  0.6531
   42DOPC   C26 5712   2.155   9.923   5.390  0.0503  0.3731  0.0283
   42DOPC   H6R 5713   2.264   9.934   5.373  0.0612 -0.5525 -0.5495
   42DOPC   H6S 5714   2.117  10.021   5.426  0.6155  0.8476 -0.6217
   42DOPC   C27 5715   2.083   9.899   5.249  0.8389  0.0543 -0.5366
   42DOPC   H7R 5716   1.973   9.892   5.256  0.8177 -1.0373 -1.6351
   42DOPC   H7S 5717   2.117   9.803   5.206 -0.9680 -1.0336  0.3607
   42DOPC   C28 5718   2.108  10.012   5.149 -0.3497  0.0659  0.4211
   42DOPC   H8R 5719   2.216  10.012   5.120 -0.9023  1.8737 -1.9027
   42DOPC   H8S 5720   2.094  10.108   5.203  0.4424  0.4325 -0.0076
   42DOPC   C29 5721   2.015  10.015   5.027 -1.4214 -0.5952  0.2287
   42DOPC   H9R 5722   1.909  10.000   5.054 -1.2461  0.3272  1.5426
   42DOPC  C210 5723   2.057  10.004   4.899  0.0073  0.1630  0.3989
   42DOPC  H10R 5724   1.974  10.000   4.827 -1.1463  2.9234  1.4513
   42DOPC  C211 5725   2.197  10.005   4.848 -0.5977 -0.0099 -0.3854
   42DOPC  H11R 5726   2.222   9.903   4.812 -0.2236 -0.0405 -0.0485
   42DOPC  H11S 5727   2.271  10.057   4.912 -0.8033 -1.2430  0.8975
   42DOPC  C212 5728   2.201  10.093   4.723  0.2368  0.3880  0.1900
   42DOPC  H12R 5729   2.310  10.091   4.699  0.3208 -2.4160  0.5122
   42DOPC  H12S 5730   2.155  10.193   4.735  1.0493  1.2711 -3.0821
   42DOPC  C213 5731   2.138  10.025   4.596  0.3676  1.2651  0.3802
   42DOPC  H13R 5732   2.121  10.104   4.521  0.8939 -1.0200 -2.3056
   42DOPC  H13S 5733   2.033   9.995   4.613  0.8435 -2.6029 -2.2288
   42DOPC  C214 5734   2.218   9.905   4.535  0.0406 -0.0517 -0.2264
   42DOPC  H14R 5735   2.219   9.821   4.607 -1.0898 -0.4442 -0.6472
   42DOPC  H14S 5736   2.321   9.933   4.504 -0.4472 -0.3195 -2.2317
   42DOPC  C215 5737   2.145   9.852   4.410 -0.7791  0.6895  0.0391
   42DOPC  H15R 5738   2.133   9.920   4.323 -1.5558 -2.1310 -2.2600
   42DOPC  H15S 5739   2.046   9.827   4.453 -1.8282 -0.2508 -2.6730
   42DOPC  C216 5740   2.210   9.715   4.369 -0.3519 -0.1453  0.3494
   42DOPC  H16R 5741   2.236   9.664   4.464  3.6496  1.8702  0.5532
   42DOPC  H16S 5742   2.311   9.738   4.330  0.2439 -0.1631  1.7908
   42DOPC  C217 5743   2.124   9.633   4.283  0.3120  0.3438  0.5326
   42DOPC  H17R 5744   2.032   9.613   4.342  1.3806  0.4645  2.3508
   42DOPC  H17S 5745   2.155   9.527   4.272  0.1977  0.4335 -0.8304
   42DOPC  C218 5746   2.083   9.701   4.144 -0.1253  0.2818 -0.4608
   42DOPC  H18R 5747   2.014   9.636   4.086  1.5198 -2.9229  0.9102
   42DOPC  H18S 5748   2.179   9.725   4.094 -0.3487  0.1154 -0.9873
   42DOPC  H18T 5749   2.042   9.802   4.167  2.2217  1.3633 -0.7238
   42DOPC   C33 5750   2.128  10.425   5.636  0.3452  0.1955 -0.2295
   42DOPC   H3X 5751   2.234  10.409   5.664  0.4023  2.0070  0.7857
   42DOPC   H3Y 5752   2.108  10.516   5.696  0.2810 -0.4587  0.7819
   42DOPC   C34 5753   2.118  10.450   5.486  0.4367  0.0101  0.1719
   42DOPC   H4X 5754   2.140  10.555   5.458 -0.1495 -0.0481 -0.5406
   42DOPC   H4Y 5755   2.009  10.442   5.464  0.5312  0.7978 -0.6733
   42DOPC   C35 5756   2.205  10.366   5.395  0.0358  0.3375  0.1291
   42DOPC   H5X 5757   2.165  10.263   5.406  0.5535 -0.0259 -1.1777
   42DOPC   H5Y 5758   2.311  10.368   5.429 -0.1039  1.2954  0.5366
   42DOPC   C36 5759   2.204  10.411   5.253  0.0183 -0.0149  0.5783
   42DOPC   H6X 5760   2.110  10.375   5.207  0.3128  2.0030 -1.8245
   42DOPC   H6Y 5761   2.205  10.521   5.240  2.6509 -0.1451 -1.3069
   42DOPC   C37 5762   2.334  10.364   5.175 -0.0039 -0.0387  0.0206
   42DOPC   H7X 5763   2.414  10.395   5.247  0.1621  2.4193 -1.1029
   42DOPC   H7Y 5764   2.339  10.256   5.153  2.1870 -0.3048  1.4578
   42DOPC   C38 5765   2.358  10.447   5.048 -0.2439 -0.0138 -0.0778
   42DOPC   H8X 5766   2.461  10.426   5.012 -0.6861  1.0410 -2.0627
   42DOPC   H8Y 5767   2.353  10.554   5.079  0.0350 -0.6124  2.2210
   42DOPC   C39 5768   2.256  10.420   4.938 -1.0336  0.3610  1.1163
   42DOPC   H9X 5769   2.158  10.383   4.969 -1.6215  0.4535 -0.5314
   42DOPC  C310 5770   2.283  10.430   4.801  0.5498  0.7694  0.8673
   42DOPC  H10X 5771   2.207  10.399   4.728  0.2474 -2.1326  2.3039
   42DOPC  C311 5772   2.412  10.487   4.744  1.1018  0.5710  0.4324
   42DOPC  H11X 5773   2.468  10.537   4.826 -2.0496  1.8595  2.0080
   42DOPC  H11Y 5774   2.382  10.565   4.671  0.1283  0.4366  0.6657
   42DOPC  C312 5775   2.491  10.371   4.679 -0.3760  0.4471  0.1382
   42DOPC  H12X 5776   2.450  10.343   4.580  1.0325 -1.1710 -0.0447
   42DOPC  H12Y 5777   2.496  10.281   4.745  1.7186  0.2170 -0.2385
   42DOPC  C313 5778   2.636  10.416   4.651 -0.1473 -0.0748 -0.4055
   42DOPC  H13X 5779   2.637  10.517   4.606 -0.3749  0.7758  1.4045
   42DOPC  H13Y 5780   2.679  10.437   4.751  0.1529  1.6943 -0.8803
   42DOPC  C314 5781   2.725  10.325   4.574  0.4961  0.4113 -0.4697
   42DOPC  H14X 5782   2.741  10.233   4.634 -0.5741  0.2668 -0.3917
   42DOPC  H14Y 5783   2.679  10.300   4.476  1.7511  1.5769 -1.3916
   42DOPC  C315 5784   2.858  10.394   4.555  0.2282  0.0729 -0.0066
   42DOPC  H15X 5785   2.891  10.430   4.654  0.0633 -0.4130  0.2316
   42DOPC  H15Y 5786   2.839  10.477   4.484 -0.5561 -1.3688 -1.5700
   42DOPC  C316 5787   2.968  10.305   4.503  0.1476 -0.0666  0.0447
   42DOPC  H16X 5788   2.983  10.216   4.568  1.0946 -0.4440 -0.6704
   42DOPC  H16Y 5789   2.939  10.259   4.406  0.4010  1.6263 -0.8645
   42DOPC  C317 5790   3.106  10.361   4.484 -0.8638  0.0476  0.3273
   42DOPC  H17X 5791   3.141  10.394   4.584 -1.6281 -2.3553  1.4392
   42DOPC  H17Y 5792   3.166  10.278   4.442 -1.0914  0.4487 -0.8380
   42DOPC  C318 5793   3.114  10.481   4.380 -0.5402 -0.2018 -0.0443
   42DOPC  H18X 5794   3.060  10.450   4.287  1.7450  2.1833 -2.3414
   42DOPC  H18Y 5795   3.066  10.570   4.425  0.2281 -0.2327  0.8591
   42DOPC  H18Z 5796   3.221  10.499   4.358 -0.6263  1.3093  0.6679
   43DOPC     N 5797  11.337  10.059   6.368 -0.3451 -0.1467 -0.3978
   43DOPC   C12 5798  11.365  10.200   6.316  0.8315  0.4402  0.4352
   43DOPC  H12A 5799  11.465  10.210   6.278  0.1402  1.0942 -1.3140
   43DOPC  H12B 5800  11.373  10.261   6.405  3.4459  0.7230  0.0602
   43DOPC   C13 5801  11.333   9.965   6.250  1.0266 -0.4899 -0.4500
   43DOPC  H13A 5802  11.264  10.010   6.180  0.9325  0.7763  0.4168
   43DOPC  H13B 5803  11.429   9.973   6.202  1.2525  2.4303  0.3034
   43DOPC  H13C 5804  11.296   9.866   6.273 -0.4736 -0.0481 -0.8208
   43DOPC   C14 5805  11.213  10.053   6.455 -0.3288 -0.1425 -0.1625
   43DOPC  H14A 5806  11.186   9.948   6.460 -0.6636 -0.0219  0.8356
   43DOPC  H14B 5807  11.232  10.110   6.545  0.7257 -1.1673  0.2974
   43DOPC  H14C 5808  11.142  10.106   6.394  1.0253  2.7693  0.6329
   43DOPC   C15 5809  11.458  10.020   6.460  0.0965 -0.6308  0.6346
   43DOPC  H15A 5810  11.472   9.913   6.469  0.8861 -0.7301 -1.2880
   43DOPC  H15B 5811  11.451  10.063   6.559 -0.0661  2.7482 -0.7026
   43DOPC  H15C 5812  11.550  10.062   6.421  0.0398  0.5883  1.7350
   43DOPC   C11 5813  11.258  10.281   6.231 -0.0181  0.3702 -0.5150
   43DOPC  H11A 5814  11.298  10.385   6.235 -0.8762  0.7663 -1.5859
   43DOPC  H11B 5815  11.255  10.244   6.126 -3.3086  2.4170 -1.3170
   43DOPC     P 5816  11.020  10.380   6.263  0.0017  0.6798  0.1202
   43DOPC   O13 5817  11.059  10.510   6.320 -0.0857  0.4055  0.3372
   43DOPC   O14 5818  10.898  10.321   6.310  0.3788 -0.1394 -0.7779
   43DOPC   O12 5819  11.131  10.277   6.290  0.0113 -0.1586 -0.6335
   43DOPC   O11 5820  11.023  10.383   6.103 -0.0432  0.0179 -0.5463
   43DOPC    C1 5821  11.083  10.484   6.023  0.0640 -0.2187  0.8035
   43DOPC    HA 5822  11.193  10.467   6.030  0.2989  1.4299  1.6760
   43DOPC    HB 5823  11.073  10.589   6.058  1.8590 -0.1680  1.2477
   43DOPC    C2 5824  11.045  10.467   5.876 -0.1876  0.4236 -0.1565
   43DOPC    HS 5825  11.107  10.539   5.819 -0.0189  0.4965  0.1227
   43DOPC   O21 5826  10.909  10.487   5.844  0.1106 -0.5040 -0.0659
   43DOPC   C21 5827  10.881  10.618   5.844 -0.5679  0.5150 -0.2167
   43DOPC   O22 5828  10.964  10.702   5.870  0.4691  0.1908 -0.3136
   43DOPC   C22 5829  10.730  10.628   5.837  0.4885 -0.2759 -1.0099
   43DOPC   H2R 5830  10.720  10.622   5.947  1.4476  1.4284 -0.7902
   43DOPC   H2S 5831  10.682  10.543   5.783  1.3431 -0.1402 -2.0156
   43DOPC    C3 5832  11.087  10.328   5.819 -0.4127  0.4413 -0.2211
   43DOPC    HX 5833  11.044  10.245   5.878 -2.2818  2.0825  0.8680
   43DOPC    HY 5834  11.196  10.327   5.838 -0.3393  0.4909 -0.6190
   43DOPC   O31 5835  11.057  10.317   5.674  0.0756 -0.0221  0.4228
   43DOPC   C31 5836  10.938  10.268   5.649  0.2900 -0.9441 -0.9210
   43DOPC   O32 5837  10.849  10.242   5.727  0.4057  0.5237 -0.1555
   43DOPC   C32 5838  10.927  10.261   5.499 -0.4469  0.0030  0.5554
   43DOPC   H2X 5839  10.988  10.332   5.439 -0.4410  0.4214  1.0398
   43DOPC   H2Y 5840  10.964  10.157   5.485  0.3822  0.4016 -0.2776
   43DOPC   C23 5841  10.672  10.769   5.805 -0.1131 -0.7976  0.0280
   43DOPC   H3R 5842  10.721  10.843   5.872  1.7732 -2.5639  0.6855
   43DOPC   H3S 5843  10.566  10.779   5.837  0.3158  2.3842  0.8320
   43DOPC   C24 5844  10.692  10.803   5.658 -0.1239  0.2977 -0.0134
   43DOPC   H4R 5845  10.793  10.845   5.643 -0.1613  0.0430 -1.0839
   43DOPC   H4S 5846  10.627  10.891   5.639  0.5563  0.8530  0.1855
   43DOPC   C25 5847  10.660  10.694   5.558  0.1004 -0.6896 -0.0063
   43DOPC   H5R 5848  10.563  10.657   5.596  0.9377 -1.3870  1.5513
   43DOPC   H5S 5849  10.740  10.618   5.571  0.9051  0.1849  0.2694
   43DOPC   C26 5850  10.647  10.754   5.419 -0.8993 -0.0621 -0.1441
   43DOPC   H6R 5851  10.704  10.849   5.420  0.3133 -0.7373 -1.2914
   43DOPC   H6S 5852  10.538  10.777   5.407 -0.9855 -0.7746 -0.7849
   43DOPC   C27 5853  10.692  10.653   5.315  0.3083 -0.3524  0.4035
   43DOPC   H7R 5854  10.627  10.568   5.345  1.3515 -0.1251  3.6481
   43DOPC   H7S 5855  10.796  10.617   5.329  1.3935  2.5758  0.3534
   43DOPC   C28 5856  10.674  10.704   5.174 -0.2647 -0.3552  0.8121
   43DOPC   H8R 5857  10.770  10.750   5.144 -0.3226 -0.8256 -0.1121
   43DOPC   H8S 5858  10.595  10.782   5.181  1.5787  1.5466  1.4265
   43DOPC   C29 5859  10.629  10.602   5.072  0.1302 -0.8475 -0.3999
   43DOPC   H9R 5860  10.613  10.508   5.127 -1.0478  0.2354  1.1997
   43DOPC  C210 5861  10.581  10.622   4.943 -0.0550 -0.2715 -1.0683
   43DOPC  H10R 5862  10.577  10.527   4.888 -3.0598 -0.8603 -0.0248
   43DOPC  C211 5863  10.569  10.751   4.865  0.7119 -0.0514  0.8435
   43DOPC  H11R 5864  10.625  10.832   4.916  1.1761  0.1208  0.0769
   43DOPC  H11S 5865  10.466  10.787   4.846 -0.3103 -2.5756  1.2506
   43DOPC  C212 5866  10.633  10.736   4.726  0.2135 -0.3435 -0.1741
   43DOPC  H12R 5867  10.578  10.658   4.669 -1.1447  1.7923 -1.9168
   43DOPC  H12S 5868  10.741  10.710   4.728  1.0515  2.6935  2.6024
   43DOPC  C213 5869  10.615  10.857   4.634 -0.8335 -0.0505  0.3737
   43DOPC  H13R 5870  10.668  10.945   4.677  1.8456 -1.2777 -0.2268
   43DOPC  H13S 5871  10.507  10.881   4.632 -1.3720 -2.2598  0.2837
   43DOPC  C214 5872  10.665  10.830   4.499 -0.2980  0.1522  0.5936
   43DOPC  H14R 5873  10.624  10.729   4.477 -1.1179  0.5935  0.0610
   43DOPC  H14S 5874  10.776  10.831   4.487  0.4289 -0.3248  5.2675
   43DOPC  C215 5875  10.619  10.938   4.399 -0.4495  0.1990  0.3880
   43DOPC  H15R 5876  10.696  10.953   4.320  1.1010  1.2064  2.0154
   43DOPC  H15S 5877  10.618  11.034   4.456 -0.0651  1.1899 -1.2184
   43DOPC  C216 5878  10.491  10.892   4.323  0.8148 -0.3489 -0.8816
   43DOPC  H16R 5879  10.398  10.902   4.382  1.0563 -0.5375 -0.4648
   43DOPC  H16S 5880  10.515  10.789   4.288  1.4873 -0.6629  0.4598
   43DOPC  C217 5881  10.463  10.974   4.197  0.4039 -0.9006 -0.1541
   43DOPC  H17R 5882  10.556  10.974   4.136  1.4360  0.2639  1.3302
   43DOPC  H17S 5883  10.468  11.081   4.227  4.3412 -1.1318  0.5515
   43DOPC  C218 5884  10.332  10.946   4.125 -0.7412  0.6034 -0.2672
   43DOPC  H18R 5885  10.241  10.972   4.182  0.2523  2.2223  0.6762
   43DOPC  H18S 5886  10.322  10.841   4.092  1.3476  0.4172 -0.4586
   43DOPC  H18T 5887  10.325  10.998   4.027  2.2492 -0.1087 -0.9865
   43DOPC   C33 5888  10.778  10.271   5.444 -0.1858 -0.1723  0.4097
   43DOPC   H3X 5889  10.727  10.370   5.445 -0.4162 -0.2901  0.9753
   43DOPC   H3Y 5890  10.707  10.203   5.496 -1.6273  0.1222 -1.0692
   43DOPC   C34 5891  10.765  10.223   5.299 -0.1919 -0.3058  1.3472
   43DOPC   H4X 5892  10.661  10.227   5.260  0.4981  3.6151 -0.5590
   43DOPC   H4Y 5893  10.811  10.122   5.291  0.8711  0.2614 -0.3078
   43DOPC   C35 5894  10.836  10.319   5.198  0.6857 -0.1114 -0.2684
   43DOPC   H5X 5895  10.946  10.320   5.215  0.7072 -0.0733 -0.4134
   43DOPC   H5Y 5896  10.783  10.416   5.202  0.0364 -0.4221 -1.0868
   43DOPC   C36 5897  10.839  10.257   5.057 -0.3439  0.0380 -0.6660
   43DOPC   H6X 5898  10.895  10.162   5.046 -1.1458 -0.9121  2.3451
   43DOPC   H6Y 5899  10.735  10.244   5.021 -0.6097 -0.6945  0.3324
   43DOPC   C37 5900  10.905  10.354   4.961 -0.4800 -0.1462  0.0462
   43DOPC   H7X 5901  10.860  10.339   4.860 -0.8058 -0.4878  0.2394
   43DOPC   H7Y 5902  10.863  10.454   4.989 -2.4538 -0.8421 -0.2451
   43DOPC   C38 5903  11.060  10.360   4.963  0.1695  0.6420  0.7182
   43DOPC   H8X 5904  11.084  10.406   5.061 -0.0550  1.4109  0.4200
   43DOPC   H8Y 5905  11.087  10.430   4.881 -2.3706 -0.8041 -1.5421
   43DOPC   C39 5906  11.131  10.229   4.930 -0.0972 -0.3664 -0.6273
   43DOPC   H9X 5907  11.099  10.197   4.830 -1.6074  0.9284 -0.6013
   43DOPC  C310 5908  11.234  10.175   4.990 -0.2932  0.7177  0.2427
   43DOPC  H10X 5909  11.257  10.075   4.949 -0.0319  1.5463 -1.7328
   43DOPC  C311 5910  11.308  10.220   5.117  0.5335  0.5115  0.1271
   43DOPC  H11X 5911  11.285  10.327   5.139  1.4026  0.6702  0.3286
   43DOPC  H11Y 5912  11.419  10.221   5.107  0.5448  3.2680 -0.2937
   43DOPC  C312 5913  11.251  10.138   5.236  0.9213  0.7603 -0.7091
   43DOPC  H12X 5914  11.147  10.102   5.223  1.0942 -0.5016  1.0770
   43DOPC  H12Y 5915  11.266  10.188   5.334 -1.5679 -0.3158  0.2900
   43DOPC  C313 5916  11.334  10.010   5.255 -0.2071  0.4763 -0.3033
   43DOPC  H13X 5917  11.350   9.958   5.158  0.1651 -4.7189  2.2197
   43DOPC  H13Y 5918  11.437  10.044   5.281 -0.6986  1.8359 -0.0331
   43DOPC  C314 5919  11.278   9.902   5.346 -0.1482 -0.3128  0.3722
   43DOPC  H14X 5920  11.176   9.875   5.311  0.2134 -0.2659 -0.7811
   43DOPC  H14Y 5921  11.335   9.807   5.331 -0.7155 -0.6842  0.5333
   43DOPC  C315 5922  11.288   9.929   5.495 -0.0923 -0.3788  0.4562
   43DOPC  H15X 5923  11.243  10.027   5.522  0.2372 -0.0159 -0.2673
   43DOPC  H15Y 5924  11.391   9.930   5.537 -0.5694  0.2192  1.6709
   43DOPC  C316 5925  11.218   9.813   5.570  0.3096  0.0359  0.5468
   43DOPC  H16X 5926  11.270   9.718   5.547  0.6466  0.4172 -0.2972
   43DOPC  H16Y 5927  11.232   9.835   5.678  0.8134  0.2682  0.4394
   43DOPC  C317 5928  11.064   9.799   5.572 -0.2607 -0.4832 -0.8352
   43DOPC  H17X 5929  11.020   9.901   5.585 -0.2005 -0.5757  0.1955
   43DOPC  H17Y 5930  11.026   9.772   5.472  0.5919 -0.5144 -1.1577
   43DOPC  C318 5931  11.007   9.689   5.660  0.0066 -0.3484  0.4991
   43DOPC  H18X 5932  10.905   9.673   5.620 -0.8094  3.2726  0.8462
   43DOPC  H18Y 5933  11.062   9.594   5.641 -0.6071 -0.3630 -1.3378
   43DOPC  H18Z 5934  11.007   9.708   5.770 -0.9154 -2.9855  1.0439
   44DOPC     N 5935   7.572   3.600   6.157  0.0898  0.2035 -0.2693
   44DOPC   C12 5936   7.627   3.514   6.046 -0.1744 -0.1057 -0.3312
   44DOPC  H12A 5937   7.734   3.516   6.057 -0.3620 -1.9590  3.9182
   44DOPC  H12B 5938   7.599   3.561   5.953  1.1521  1.2821 -0.0584
   44DOPC   C13 5939   7.419   3.572   6.169 -0.2765  0.2395  0.5095
   44DOPC  H13A 5940   7.408   3.467   6.193  1.0130  0.9031  4.8693
   44DOPC  H13B 5941   7.388   3.634   6.251 -1.6664  1.0746 -0.6009
   44DOPC  H13C 5942   7.367   3.597   6.077 -0.3976 -0.6700  0.3213
   44DOPC   C14 5943   7.580   3.745   6.109  0.2024  0.3355  0.1530
   44DOPC  H14A 5944   7.519   3.769   6.024  0.6117 -1.8920 -0.8613
   44DOPC  H14B 5945   7.541   3.806   6.189  1.6116 -0.5808  1.6289
   44DOPC  H14C 5946   7.684   3.759   6.083  0.0884 -2.4086 -2.3351
   44DOPC   C15 5947   7.633   3.579   6.294 -0.4390 -0.2158 -0.0273
   44DOPC  H15A 5948   7.601   3.652   6.367  0.4073 -0.4796  0.6197
   44DOPC  H15B 5949   7.740   3.585   6.290 -0.4641  0.4829  0.2639
   44DOPC  H15C 5950   7.621   3.476   6.323  0.6469 -0.2509  0.3246
   44DOPC   C11 5951   7.584   3.367   6.048 -0.8504 -0.7939 -1.2267
   44DOPC  H11A 5952   7.476   3.351   6.026 -0.8255  0.8705 -2.8035
   44DOPC  H11B 5953   7.638   3.319   5.963  0.3145 -1.0171 -0.3926
   44DOPC     P 5954   7.555   3.164   6.206  0.2781 -0.1016  0.6761
   44DOPC   O13 5955   7.410   3.191   6.189  0.7059  0.0980  0.3586
   44DOPC   O14 5956   7.605   3.118   6.337  0.5589 -0.0192  0.0135
   44DOPC   O12 5957   7.629   3.301   6.173 -0.2509 -0.1777 -0.1471
   44DOPC   O11 5958   7.609   3.065   6.093 -0.0382 -0.1023  0.2589
   44DOPC    C1 5959   7.741   3.036   6.048  0.1000 -0.1128 -0.2144
   44DOPC    HA 5960   7.802   2.986   6.126 -0.1551  0.1212  0.1340
   44DOPC    HB 5961   7.789   3.130   6.013 -0.3884 -0.3133 -1.4812
   44DOPC    C2 5962   7.749   2.945   5.921  0.4715 -0.9024  0.4958
   44DOPC    HS 5963   7.854   2.957   5.889  0.2002 -1.2252 -0.5627
   44DOPC   O21 5964   7.660   2.983   5.810 -0.5864  0.1186  0.4134
   44DOPC   C21 5965   7.691   3.097   5.760  0.9039  0.6175 -0.3761
   44DOPC   O22 5966   7.801   3.154   5.782  0.9598  0.1061  0.5893
   44DOPC   C22 5967   7.584   3.141   5.670  0.1515 -0.1103  0.3115
   44DOPC   H2R 5968   7.514   3.209   5.722  0.0317 -0.2287  0.3062
   44DOPC   H2S 5969   7.528   3.055   5.627 -0.9563  0.9340 -0.4073
   44DOPC    C3 5970   7.727   2.802   5.954 -0.5148  0.2143 -0.8454
   44DOPC    HX 5971   7.635   2.804   6.016  1.3880  1.5017  2.1842
   44DOPC    HY 5972   7.803   2.777   6.030 -1.3795  0.6867  0.1988
   44DOPC   O31 5973   7.737   2.697   5.847 -0.1128 -0.9737  0.1974
   44DOPC   C31 5974   7.619   2.648   5.810  0.1999  0.4111 -0.2833
   44DOPC   O32 5975   7.509   2.676   5.858  0.3035  0.4198  0.4547
   44DOPC   C32 5976   7.636   2.564   5.687 -0.5988  0.4647  0.2462
   44DOPC   H2X 5977   7.728   2.600   5.637 -1.3860 -0.0641 -1.6687
   44DOPC   H2Y 5978   7.652   2.464   5.732  2.3326  1.2873  1.2962
   44DOPC   C23 5979   7.652   3.201   5.546 -0.0722  0.0794  0.7831
   44DOPC   H3R 5980   7.678   3.118   5.478 -1.0502 -0.3300  0.8975
   44DOPC   H3S 5981   7.743   3.259   5.573  0.6670 -0.8393  0.3116
   44DOPC   C24 5982   7.566   3.306   5.468 -0.0579 -0.6961 -0.1068
   44DOPC   H4R 5983   7.632   3.339   5.384  0.8704  0.5421  1.0580
   44DOPC   H4S 5984   7.525   3.384   5.536 -2.5822  0.2097 -2.4938
   44DOPC   C25 5985   7.436   3.244   5.399  0.4808 -0.1404 -0.3267
   44DOPC   H5R 5986   7.378   3.190   5.478  0.9307 -0.1679 -0.0136
   44DOPC   H5S 5987   7.477   3.164   5.334  0.2169  0.5758 -1.4030
   44DOPC   C26 5988   7.356   3.347   5.318  0.3784 -0.5780 -0.3891
   44DOPC   H6R 5989   7.292   3.286   5.250 -2.1083  1.9170 -0.4549
   44DOPC   H6S 5990   7.438   3.410   5.278 -0.1157  1.5837  1.7991
   44DOPC   C27 5991   7.234   3.406   5.406  0.4663 -0.3052 -0.3790
   44DOPC   H7R 5992   7.284   3.460   5.489  1.8786 -0.5659 -1.0209
   44DOPC   H7S 5993   7.174   3.322   5.446 -0.8567  1.0440  0.5695
   44DOPC   C28 5994   7.141   3.501   5.331 -0.0096 -0.7058  0.3010
   44DOPC   H8R 5995   7.040   3.483   5.374 -0.0151 -1.0809  0.1418
   44DOPC   H8S 5996   7.128   3.476   5.223  0.6917  2.7167 -0.6901
   44DOPC   C29 5997   7.171   3.648   5.350  0.1662 -0.6026  0.9811
   44DOPC   H9R 5998   7.176   3.694   5.450 -2.3491  0.3003  0.7605
   44DOPC  C210 5999   7.208   3.734   5.249  0.1294 -0.5166 -0.0516
   44DOPC  H10R 6000   7.234   3.834   5.284 -1.1065 -0.3961  0.5684
   44DOPC  C211 6001   7.216   3.711   5.099 -0.2319 -0.6482  0.1588
   44DOPC  H11R 6002   7.232   3.808   5.047 -0.7078 -1.1364 -0.9261
   44DOPC  H11S 6003   7.112   3.685   5.069 -1.3899  2.6810  0.8374
   44DOPC  C212 6004   7.316   3.600   5.055  0.3600 -0.5548 -0.1192
   44DOPC  H12R 6005   7.298   3.502   5.105  0.4171 -0.9611 -0.8833
   44DOPC  H12S 6006   7.424   3.620   5.066  0.1772  2.7918 -2.7834
   44DOPC  C213 6007   7.304   3.571   4.902 -0.6610  0.4404 -0.0747
   44DOPC  H13R 6008   7.345   3.658   4.845  1.1461  0.3058  0.9429
   44DOPC  H13S 6009   7.198   3.557   4.873 -1.0972 -0.5567  1.8707
   44DOPC  C214 6010   7.398   3.450   4.872  0.5353 -0.2406  0.1170
   44DOPC  H14R 6011   7.378   3.374   4.951 -1.6267 -1.1020 -1.1398
   44DOPC  H14S 6012   7.497   3.499   4.874 -0.4808  1.9897 -0.7330
   44DOPC  C215 6013   7.358   3.382   4.747 -0.5728  0.8647 -0.2547
   44DOPC  H15R 6014   7.359   3.459   4.667  1.0570  0.6131 -0.5216
   44DOPC  H15S 6015   7.251   3.351   4.749 -0.7238  1.3442 -0.6312
   44DOPC  C216 6016   7.444   3.256   4.710 -0.3054 -0.0656 -0.0086
   44DOPC  H16R 6017   7.424   3.183   4.791 -2.3426  1.9699  1.4387
   44DOPC  H16S 6018   7.554   3.268   4.696 -0.4208  0.2851 -0.6825
   44DOPC  C217 6019   7.398   3.200   4.568 -0.2569 -0.6006 -0.2956
   44DOPC  H17R 6020   7.392   3.292   4.507 -1.9258 -0.5302 -0.0729
   44DOPC  H17S 6021   7.294   3.161   4.581 -0.0701 -0.7626  0.8612
   44DOPC  C218 6022   7.486   3.093   4.512  0.6195 -0.1042 -0.5993
   44DOPC  H18R 6023   7.590   3.132   4.521  0.2953  0.5591  0.3098
   44DOPC  H18S 6024   7.465   3.077   4.404 -1.7276  0.0648 -0.2245
   44DOPC  H18T 6025   7.481   3.000   4.572 -2.7425  0.7893  0.7075
   44DOPC   C33 6026   7.533   2.555   5.573  0.4895  0.1427  0.0043
   44DOPC   H3X 6027   7.434   2.512   5.597  0.1077  0.2421 -1.3253
   44DOPC   H3Y 6028   7.585   2.496   5.494 -0.1047  0.0472 -0.3213
   44DOPC   C34 6029   7.496   2.694   5.509  0.2195  0.4934  0.2003
   44DOPC   H4X 6030   7.469   2.768   5.588 -1.9817  0.3614 -0.3553
   44DOPC   H4Y 6031   7.405   2.682   5.447 -0.0736  0.2857  0.6606
   44DOPC   C35 6032   7.614   2.742   5.424 -0.1080  0.7723 -0.4511
   44DOPC   H5X 6033   7.653   2.647   5.382 -1.0876  0.1185  0.0720
   44DOPC   H5Y 6034   7.702   2.766   5.488 -0.3589  0.8526 -0.1315
   44DOPC   C36 6035   7.587   2.857   5.332 -0.1371  0.1062 -0.4908
   44DOPC   H6X 6036   7.511   2.834   5.254  0.1403  2.2259 -1.4494
   44DOPC   H6Y 6037   7.554   2.942   5.395  0.3148 -0.8376  1.0855
   44DOPC   C37 6038   7.712   2.892   5.255  0.1218  0.8784  0.0416
   44DOPC   H7X 6039   7.787   2.906   5.336  2.0474 -3.7152 -0.6613
   44DOPC   H7Y 6040   7.763   2.816   5.193  2.7068  2.1459  0.4589
   44DOPC   C38 6041   7.689   3.014   5.170  1.1072  0.2085 -0.1610
   44DOPC   H8X 6042   7.786   3.028   5.116 -0.4105 -1.2430 -3.5895
   44DOPC   H8Y 6043   7.659   3.107   5.223 -1.8763 -0.2494 -0.9149
   44DOPC   C39 6044   7.579   2.988   5.063 -0.0803 -0.0817  0.8058
   44DOPC   H9X 6045   7.476   2.999   5.099 -0.3386  1.2408 -0.2420
   44DOPC  C310 6046   7.609   2.938   4.942  0.2925 -0.3371  0.9345
   44DOPC  H10X 6047   7.522   2.904   4.884  0.2079 -0.2979  1.0382
   44DOPC  C311 6048   7.746   2.892   4.892  0.8145 -0.5243 -0.1260
   44DOPC  H11X 6049   7.824   2.907   4.970  0.2164 -1.2466  0.6330
   44DOPC  H11Y 6050   7.770   2.952   4.801 -0.6268  0.6977  0.2708
   44DOPC  C312 6051   7.743   2.741   4.853  0.3365  0.0323  0.6000
   44DOPC  H12X 6052   7.684   2.679   4.924  0.5223 -0.2659  0.4940
   44DOPC  H12Y 6053   7.846   2.702   4.858 -0.1803 -1.8910 -1.7632
   44DOPC  C313 6054   7.686   2.706   4.711 -0.0433  0.2610  0.1415
   44DOPC  H13X 6055   7.671   2.597   4.702  0.2902  0.3193 -1.4690
   44DOPC  H13Y 6056   7.583   2.748   4.713 -0.1514 -0.0063  0.1332
   44DOPC  C314 6057   7.770   2.771   4.603  0.1674  0.2393  0.4287
   44DOPC  H14X 6058   7.767   2.880   4.623 -2.5951  0.0368  1.5425
   44DOPC  H14Y 6059   7.873   2.730   4.612  0.5823  0.8380 -1.1663
   44DOPC  C315 6060   7.742   2.731   4.456  0.4278 -0.2626 -0.2624
   44DOPC  H15X 6061   7.643   2.774   4.433  0.0924 -1.6346 -1.5460
   44DOPC  H15Y 6062   7.746   2.620   4.446 -0.1110 -0.1936 -1.3735
   44DOPC  C316 6063   7.836   2.809   4.353 -0.8256  0.1917 -1.1197
   44DOPC  H16X 6064   7.827   2.910   4.398 -2.3731 -0.1573 -0.6100
   44DOPC  H16Y 6065   7.941   2.773   4.357 -0.8631  0.0665 -1.2576
   44DOPC  C317 6066   7.791   2.789   4.208 -0.1946 -0.9313 -0.0337
   44DOPC  H17X 6067   7.807   2.681   4.186  0.6870 -0.5688 -1.3086
   44DOPC  H17Y 6068   7.685   2.824   4.206  0.5925  1.7304  0.8011
   44DOPC  C318 6069   7.879   2.862   4.106  0.5054  0.0426  0.6192
   44DOPC  H18X 6070   7.869   2.972   4.118  1.4586  0.6072 -2.7995
   44DOPC  H18Y 6071   7.985   2.840   4.131  0.7625 -1.1011 -1.2464
   44DOPC  H18Z 6072   7.858   2.830   4.001  0.1467  0.6145  0.5173
   45DOPC     N 6073   8.342   4.710   6.537 -0.2636 -0.2371 -0.1318
   45DOPC   C12 6074   8.259   4.587   6.575  0.7783  0.4397  0.0357
   45DOPC  H12A 6075   8.179   4.624   6.636  0.5387  1.8908 -1.0951
   45DOPC  H12B 6076   8.329   4.525   6.628 -0.1991  1.1000  2.1860
   45DOPC   C13 6077   8.249   4.820   6.501  0.5446 -0.1398  0.2403
   45DOPC  H13A 6078   8.306   4.906   6.470  1.0158  0.0864  1.6978
   45DOPC  H13B 6079   8.192   4.796   6.412 -0.3211 -0.7839  0.9557
   45DOPC  H13C 6080   8.180   4.834   6.582  0.2647  0.7106 -0.1313
   45DOPC   C14 6081   8.438   4.683   6.431  0.3457 -0.6119  0.2303
   45DOPC  H14A 6082   8.506   4.603   6.457  0.0972 -1.0545 -0.4516
   45DOPC  H14B 6083   8.387   4.645   6.344  1.1615 -1.8499  0.2721
   45DOPC  H14C 6084   8.502   4.764   6.398  0.8227 -0.9306  0.3519
   45DOPC   C15 6085   8.415   4.761   6.647  0.2074  0.1353 -0.0997
   45DOPC  H15A 6086   8.361   4.831   6.709 -0.5687  3.0225 -3.6996
   45DOPC  H15B 6087   8.501   4.820   6.619 -0.7818  1.2771 -0.8800
   45DOPC  H15C 6088   8.459   4.684   6.709  2.7552 -0.1464 -2.0897
   45DOPC   C11 6089   8.190   4.513   6.455  0.3811 -0.0804  0.4376
   45DOPC  H11A 6090   8.267   4.478   6.383  0.8629  1.2295  0.2883
   45DOPC  H11B 6091   8.144   4.418   6.491 -1.3223 -0.3527 -2.1668
   45DOPC     P 6092   8.067   4.598   6.232  0.6736 -0.2126  0.3955
   45DOPC   O13 6093   8.173   4.689   6.180  0.0127 -0.8037 -0.0440
   45DOPC   O14 6094   7.926   4.626   6.206  0.5982 -0.0150  0.2936
   45DOPC   O12 6095   8.096   4.599   6.387  0.0362 -1.2683 -0.1462
   45DOPC   O11 6096   8.097   4.453   6.178  0.1288 -0.0754 -0.1876
   45DOPC    C1 6097   8.210   4.413   6.099  0.1180 -0.4160  0.3128
   45DOPC    HA 6098   8.236   4.310   6.134 -2.6965 -1.6172 -0.8969
   45DOPC    HB 6099   8.289   4.489   6.119 -0.5925 -0.0241  1.8108
   45DOPC    C2 6100   8.186   4.407   5.947  0.1561 -0.4286 -0.6529
   45DOPC    HS 6101   8.245   4.324   5.903  2.8040 -1.5291  4.2289
   45DOPC   O21 6102   8.231   4.538   5.887  0.2086  0.0013 -0.4052
   45DOPC   C21 6103   8.354   4.555   5.868 -0.2916 -0.6689 -1.1686
   45DOPC   O22 6104   8.438   4.471   5.887 -0.4898 -0.2653 -1.1538
   45DOPC   C22 6105   8.367   4.677   5.780 -0.0378  1.0216  0.0291
   45DOPC   H2R 6106   8.471   4.714   5.789  0.8255 -1.1817 -0.2098
   45DOPC   H2S 6107   8.305   4.755   5.827 -0.3959  0.0650  1.2061
   45DOPC    C3 6108   8.039   4.387   5.917 -0.4035  0.1425  0.1038
   45DOPC    HX 6109   7.982   4.480   5.936 -0.3586  0.9733 -3.1452
   45DOPC    HY 6110   8.011   4.309   5.990 -0.0817 -1.6640 -1.5948
   45DOPC   O31 6111   8.019   4.337   5.785 -0.0335  0.1936 -0.3361
   45DOPC   C31 6112   7.992   4.426   5.689  0.2536  0.1007 -0.0142
   45DOPC   O32 6113   8.002   4.548   5.690  0.2153  0.3087 -0.0062
   45DOPC   C32 6114   7.932   4.347   5.566  0.5861 -0.5461  0.3154
   45DOPC   H2X 6115   7.922   4.236   5.575  0.1771 -0.4286  1.6231
   45DOPC   H2Y 6116   7.829   4.388   5.564  0.5668 -0.6168 -0.1791
   45DOPC   C23 6117   8.327   4.654   5.630  0.2070 -0.0393  0.4780
   45DOPC   H3R 6118   8.346   4.745   5.570  0.5500 -0.8419 -0.6665
   45DOPC   H3S 6119   8.217   4.637   5.631  0.3077 -0.8904  2.6590
   45DOPC   C24 6120   8.391   4.532   5.571  0.3779 -0.3138  0.1956
   45DOPC   H4R 6121   8.370   4.439   5.628  0.0753  0.1909  0.9186
   45DOPC   H4S 6122   8.500   4.552   5.563  0.0222  2.8808  1.8849
   45DOPC   C25 6123   8.343   4.515   5.421  0.0198 -0.3747 -0.1094
   45DOPC   H5R 6124   8.385   4.601   5.364 -1.5470  2.2515  2.3709
   45DOPC   H5S 6125   8.233   4.529   5.418 -0.3458 -2.8507 -0.1075
   45DOPC   C26 6126   8.400   4.380   5.361 -0.2651 -0.8616  0.0076
   45DOPC   H6R 6127   8.356   4.294   5.415 -2.2285  0.0918  0.0250
   45DOPC   H6S 6128   8.511   4.380   5.370 -0.4212  0.1403  2.9976
   45DOPC   C27 6129   8.350   4.367   5.215 -0.0384  0.6016 -0.3443
   45DOPC   H7R 6130   8.394   4.448   5.154 -0.6730  0.4280 -1.0359
   45DOPC   H7S 6131   8.240   4.366   5.204 -0.2898  0.9805  1.6116
   45DOPC   C28 6132   8.407   4.238   5.157 -0.2338  0.1528 -0.4652
   45DOPC   H8R 6133   8.518   4.242   5.169 -0.3320  0.1961  0.5453
   45DOPC   H8S 6134   8.403   4.252   5.047 -0.2625  1.6032 -0.2937
   45DOPC   C29 6135   8.349   4.111   5.202 -0.2782  0.0704  0.6521
   45DOPC   H9R 6136   8.403   4.063   5.284  0.7043  1.9412  1.1696
   45DOPC  C210 6137   8.247   4.056   5.145 -0.1404  0.3641  0.1969
   45DOPC  H10R 6138   8.216   3.955   5.175  1.7697  0.2183  1.8596
   45DOPC  C211 6139   8.154   4.115   5.038  0.3105 -0.2041 -0.7691
   45DOPC  H11R 6140   8.156   4.226   5.044 -0.1561 -0.2416  0.1386
   45DOPC  H11S 6141   8.051   4.088   5.068  0.3476  0.9272  0.4780
   45DOPC  C212 6142   8.186   4.075   4.891  0.5078  0.1803  0.3160
   45DOPC  H12R 6143   8.273   4.136   4.856 -0.5701  0.3985 -2.1632
   45DOPC  H12S 6144   8.105   4.115   4.826 -1.0716 -1.3631  1.2647
   45DOPC  C213 6145   8.219   3.928   4.863 -0.1275  0.7383 -0.2294
   45DOPC  H13R 6146   8.131   3.869   4.898  0.0576 -0.3519 -1.5238
   45DOPC  H13S 6147   8.308   3.897   4.923 -0.2786  4.0927  2.0190
   45DOPC  C214 6148   8.247   3.886   4.714  0.2326  0.5811 -0.6249
   45DOPC  H14R 6149   8.337   3.945   4.687 -0.3018  1.5785 -0.2668
   45DOPC  H14S 6150   8.166   3.912   4.643  1.5986  0.5810 -2.2371
   45DOPC  C215 6151   8.267   3.734   4.701  0.5146  0.0099  0.2923
   45DOPC  H15R 6152   8.174   3.682   4.731  0.9456 -1.1869 -0.3947
   45DOPC  H15S 6153   8.353   3.705   4.764  1.4856  2.5283  0.2234
   45DOPC  C216 6154   8.290   3.689   4.554 -0.0409  0.6419  0.5380
   45DOPC  H16R 6155   8.396   3.712   4.529  0.3528 -1.5522  0.0490
   45DOPC  H16S 6156   8.224   3.746   4.485  1.5696  0.7277 -1.0208
   45DOPC  C217 6157   8.268   3.538   4.529 -0.0556  0.3201 -0.8859
   45DOPC  H17R 6158   8.164   3.507   4.554  0.0543 -1.6871 -2.6487
   45DOPC  H17S 6159   8.337   3.482   4.595  1.2245  1.6666 -1.0146
   45DOPC  C218 6160   8.310   3.480   4.394 -0.1975  0.3331 -0.2561
   45DOPC  H18R 6161   8.225   3.504   4.327 -0.9003 -1.7280 -0.1483
   45DOPC  H18S 6162   8.341   3.374   4.402 -0.9709  0.1663  0.9220
   45DOPC  H18T 6163   8.402   3.536   4.367 -0.6601  2.1177  1.5883
   45DOPC   C33 6164   8.007   4.370   5.432  0.7240  1.1703  0.1980
   45DOPC   H3X 6165   8.104   4.315   5.434  0.6053  0.9693  1.0626
   45DOPC   H3Y 6166   8.025   4.479   5.431 -0.2074  1.3275 -0.3988
   45DOPC   C34 6167   7.925   4.328   5.305  0.4762  0.5312 -0.0766
   45DOPC   H4X 6168   7.858   4.241   5.325  1.5431 -1.2235 -3.4172
   45DOPC   H4Y 6169   7.996   4.292   5.228 -0.7398 -0.5953 -0.7261
   45DOPC   C35 6170   7.829   4.446   5.267 -0.8165  0.2828 -0.2807
   45DOPC   H5X 6171   7.893   4.533   5.237  1.4651 -1.4178 -0.6080
   45DOPC   H5Y 6172   7.777   4.483   5.358  1.1091 -0.6698  1.3051
   45DOPC   C36 6173   7.724   4.410   5.166 -0.3239 -0.0798  0.8768
   45DOPC   H6X 6174   7.670   4.318   5.198 -0.8261  0.5101  1.7548
   45DOPC   H6Y 6175   7.650   4.493   5.155 -0.8398 -0.5383  0.8222
   45DOPC   C37 6176   7.779   4.387   5.024  0.4847  0.3954  0.4099
   45DOPC   H7X 6177   7.824   4.475   4.973  4.0865 -1.1806  0.5346
   45DOPC   H7Y 6178   7.861   4.313   5.040  0.0090  0.2662  2.6298
   45DOPC   C38 6179   7.675   4.309   4.941  0.4436  0.8895  0.2578
   45DOPC   H8X 6180   7.585   4.364   4.907 -0.4030 -0.5715  0.0249
   45DOPC   H8Y 6181   7.634   4.226   5.003 -1.1694 -1.1953 -3.2260
   45DOPC   C39 6182   7.742   4.233   4.825 -0.5535  0.5438 -0.8196
   45DOPC   H9X 6183   7.838   4.183   4.844 -0.5035 -0.1520 -2.6977
   45DOPC  C310 6184   7.680   4.195   4.717 -0.0601 -0.0710 -0.1237
   45DOPC  H10X 6185   7.735   4.145   4.636  1.9895  0.8520  0.6338
   45DOPC  C311 6186   7.542   4.230   4.673 -0.1188 -0.2031 -0.9203
   45DOPC  H11X 6187   7.487   4.283   4.754  1.0389 -1.2401  0.5876
   45DOPC  H11Y 6188   7.489   4.132   4.668 -1.1068  0.3087 -0.8715
   45DOPC  C312 6189   7.532   4.291   4.531  0.2756  0.3976  0.2642
   45DOPC  H12X 6190   7.428   4.329   4.520 -1.0181 -2.2300  2.2671
   45DOPC  H12Y 6191   7.542   4.207   4.459  1.9217 -0.2269  1.1877
   45DOPC  C313 6192   7.638   4.393   4.495 -0.1590  0.6253  0.7676
   45DOPC  H13X 6193   7.740   4.367   4.529  1.0235 -0.8223 -3.3471
   45DOPC  H13Y 6194   7.649   4.389   4.385 -1.1523 -2.1358  0.6915
   45DOPC  C314 6195   7.593   4.533   4.538  0.0966 -0.2089 -0.2467
   45DOPC  H14X 6196   7.498   4.554   4.485 -0.0290 -0.5975 -0.1792
   45DOPC  H14Y 6197   7.575   4.540   4.648  0.2188  1.4995 -0.3182
   45DOPC  C315 6198   7.700   4.635   4.510  0.1079  0.1549 -0.5136
   45DOPC  H15X 6199   7.731   4.619   4.404 -0.9126  0.1775 -0.8334
   45DOPC  H15Y 6200   7.782   4.605   4.578  0.7451  3.1238  0.1337
   45DOPC  C316 6201   7.682   4.781   4.541 -0.1250 -0.1911 -0.3716
   45DOPC  H16X 6202   7.604   4.830   4.478 -2.5050 -1.4327  1.4713
   45DOPC  H16Y 6203   7.653   4.800   4.646 -0.3748 -0.3490 -0.4102
   45DOPC  C317 6204   7.812   4.860   4.522 -0.8040 -0.0660  0.1250
   45DOPC  H17X 6205   7.784   4.961   4.557 -2.3272 -0.0686 -1.0057
   45DOPC  H17Y 6206   7.896   4.820   4.584 -1.2919  0.2589  1.0030
   45DOPC  C318 6207   7.856   4.869   4.376  0.3804  0.8179 -0.0476
   45DOPC  H18X 6208   7.945   4.933   4.357  0.2533  0.1757 -3.3839
   45DOPC  H18Y 6209   7.884   4.773   4.329  1.0288  0.1832  1.5726
   45DOPC  H18Z 6210   7.779   4.909   4.306 -2.3270 -0.1163  2.2275
   46DOPC     N 6211   9.727   4.628   5.820 -0.2946  0.5114 -0.1968
   46DOPC   C12 6212   9.588   4.587   5.869 -0.2180  0.1976  0.8216
   46DOPC  H12A 6213   9.594   4.482   5.890  1.2184  0.3981  1.5779
   46DOPC  H12B 6214   9.521   4.596   5.786  0.2386 -2.1688  0.1305
   46DOPC   C13 6215   9.726   4.760   5.748 -0.0934  0.1441  0.0236
   46DOPC  H13A 6216   9.668   4.834   5.801 -2.6740 -1.7848  0.0526
   46DOPC  H13B 6217   9.828   4.796   5.735 -0.3626  1.5769  1.5135
   46DOPC  H13C 6218   9.692   4.749   5.646 -1.7510 -0.0257  0.5749
   46DOPC   C14 6219   9.780   4.528   5.722 -0.2698  0.2287  0.4555
   46DOPC  H14A 6220   9.734   4.432   5.738 -0.5179 -0.2848 -2.7258
   46DOPC  H14B 6221   9.761   4.571   5.625 -0.7397  0.2638  0.5589
   46DOPC  H14C 6222   9.886   4.515   5.731 -0.2697 -0.6914 -0.7248
   46DOPC   C15 6223   9.825   4.638   5.933  0.3636 -0.3048  0.2905
   46DOPC  H15A 6224   9.817   4.544   5.986 -2.4015 -1.2623 -1.5765
   46DOPC  H15B 6225   9.800   4.728   5.987 -2.6180 -0.4980 -0.5810
   46DOPC  H15C 6226   9.926   4.640   5.896  0.9809 -0.3844  1.9055
   46DOPC   C11 6227   9.538   4.660   5.994  0.4944 -0.4515 -0.2935
   46DOPC  H11A 6228   9.454   4.604   6.039  0.0445  0.0199 -0.5398
   46DOPC  H11B 6229   9.610   4.653   6.079  0.8578  0.2716 -0.5246
   46DOPC     P 6230   9.397   4.844   5.890 -0.0373  0.0761  0.4888
   46DOPC   O13 6231   9.448   4.956   5.806  0.0663 -0.0136 -0.3534
   46DOPC   O14 6232   9.294   4.880   5.981 -0.2867  0.2802 -0.3976
   46DOPC   O12 6233   9.515   4.797   5.979 -0.6621 -0.4357  0.3692
   46DOPC   O11 6234   9.370   4.725   5.793 -0.2212 -0.1735 -0.1824
   46DOPC    C1 6235   9.251   4.719   5.709 -0.5108  0.1502  0.0294
   46DOPC    HA 6236   9.221   4.823   5.684  0.8331  0.9607  1.5975
   46DOPC    HB 6237   9.167   4.671   5.765 -0.5648  0.7778  0.5016
   46DOPC    C2 6238   9.295   4.669   5.562  0.6992 -0.3488 -0.1107
   46DOPC    HS 6239   9.214   4.663   5.487  1.1730  0.0674 -0.6680
   46DOPC   O21 6240   9.364   4.552   5.561 -0.5862  0.0305 -0.0599
   46DOPC   C21 6241   9.293   4.446   5.588  0.4635  0.5398  0.5162
   46DOPC   O22 6242   9.177   4.452   5.630 -0.6768 -0.3613  0.2755
   46DOPC   C22 6243   9.384   4.329   5.577 -0.5685  0.3428 -0.1399
   46DOPC   H2R 6244   9.326   4.241   5.611 -0.5675  0.0222 -0.9536
   46DOPC   H2S 6245   9.459   4.345   5.657  0.2592  0.1169 -0.8513
   46DOPC    C3 6246   9.376   4.784   5.495 -0.0784  0.5869  0.1891
   46DOPC    HX 6247   9.465   4.810   5.556  0.3960 -0.2040 -0.1566
   46DOPC    HY 6248   9.312   4.873   5.474 -2.1474 -0.5053  1.4928
   46DOPC   O31 6249   9.424   4.728   5.369  0.1691 -0.2562 -0.0093
   46DOPC   C31 6250   9.549   4.690   5.340  0.1063 -0.5062  0.1661
   46DOPC   O32 6251   9.633   4.686   5.429 -0.6463 -0.3280  0.1619
   46DOPC   C32 6252   9.539   4.628   5.197 -0.4187 -0.7854 -1.1747
   46DOPC   H2X 6253   9.474   4.538   5.200  0.3462 -1.3536 -1.3655
   46DOPC   H2Y 6254   9.497   4.696   5.119 -1.1107  0.0609 -0.0865
   46DOPC   C23 6255   9.458   4.316   5.448 -0.1869  0.0720  1.4594
   46DOPC   H3R 6256   9.522   4.403   5.423  0.8484 -1.1991 -0.6315
   46DOPC   H3S 6257   9.378   4.310   5.371  0.4583  0.4666  0.7396
   46DOPC   C24 6258   9.541   4.183   5.447  0.2733 -0.0369  0.2275
   46DOPC   H4R 6259   9.458   4.110   5.449 -1.1592  1.3304 -2.8239
   46DOPC   H4S 6260   9.609   4.192   5.534 -0.5199  2.4493  0.6810
   46DOPC   C25 6261   9.622   4.161   5.314 -0.4596 -0.2300 -0.0416
   46DOPC   H5R 6262   9.708   4.230   5.307 -0.4910 -0.2998 -1.4493
   46DOPC   H5S 6263   9.560   4.196   5.228 -0.0953  1.3007  0.2965
   46DOPC   C26 6264   9.654   4.012   5.296 -0.6027 -0.0217  0.1940
   46DOPC   H6R 6265   9.558   3.965   5.263 -1.0909  0.8876  0.2901
   46DOPC   H6S 6266   9.686   3.973   5.395 -1.2827  0.0305  0.4451
   46DOPC   C27 6267   9.757   3.988   5.178  0.2403  0.1217 -0.0119
   46DOPC   H7R 6268   9.765   3.879   5.158  0.8498 -0.1639  1.5706
   46DOPC   H7S 6269   9.858   4.021   5.213 -0.0632  1.0886 -0.0201
   46DOPC   C28 6270   9.722   4.071   5.045 -0.4024  0.1003 -0.5092
   46DOPC   H8R 6271   9.732   4.177   5.077  3.4052 -0.5922  1.1703
   46DOPC   H8S 6272   9.618   4.040   5.023 -0.8743  0.7842  0.6558
   46DOPC   C29 6273   9.801   4.024   4.925 -0.5100 -0.2741 -0.7697
   46DOPC   H9R 6274   9.893   4.080   4.905 -0.1041 -1.2659 -1.7905
   46DOPC  C210 6275   9.771   3.918   4.857  1.2757  0.0474  0.2402
   46DOPC  H10R 6276   9.839   3.881   4.778 -0.1266 -1.3167 -0.3792
   46DOPC  C211 6277   9.651   3.831   4.892 -0.3358  0.1432 -0.9522
   46DOPC  H11R 6278   9.550   3.867   4.863 -0.5758 -0.2483 -0.6014
   46DOPC  H11S 6279   9.645   3.810   5.000 -0.9464 -1.4524 -1.2728
   46DOPC  C212 6280   9.666   3.698   4.824  0.5767  0.3626 -0.2235
   46DOPC  H12R 6281   9.576   3.645   4.861 -2.1371  4.8479  0.3747
   46DOPC  H12S 6282   9.753   3.644   4.867 -1.3167 -0.9977  2.1882
   46DOPC  C213 6283   9.652   3.702   4.667  0.0685 -0.2825 -0.2530
   46DOPC  H13R 6284   9.726   3.777   4.632  2.1353 -1.5676  1.1315
   46DOPC  H13S 6285   9.554   3.746   4.638  0.0218 -0.7632 -0.8405
   46DOPC  C214 6286   9.666   3.561   4.604 -0.0638  0.1929  0.4605
   46DOPC  H14R 6287   9.578   3.554   4.537  1.2830 -0.8127 -1.3038
   46DOPC  H14S 6288   9.672   3.475   4.674 -1.2630 -0.4405 -0.1948
   46DOPC  C215 6289   9.796   3.552   4.518  0.4322  0.4505  0.3630
   46DOPC  H15R 6290   9.879   3.590   4.583  2.5555 -0.9359 -1.3891
   46DOPC  H15S 6291   9.798   3.617   4.428  3.4671 -1.8640 -1.4518
   46DOPC  C216 6292   9.810   3.408   4.469 -0.4736 -0.7203  0.0113
   46DOPC  H16R 6293   9.853   3.333   4.539 -0.8066 -1.6060 -0.7097
   46DOPC  H16S 6294   9.713   3.364   4.437 -0.8002 -0.5343  0.7304
   46DOPC  C217 6295   9.900   3.405   4.347  0.1717 -0.4661 -1.0805
   46DOPC  H17R 6296   9.996   3.446   4.386 -0.4545  0.9036 -0.9253
   46DOPC  H17S 6297   9.860   3.478   4.274  0.0141  0.8278  0.2534
   46DOPC  C218 6298   9.925   3.273   4.275 -0.2852 -0.1332  0.3178
   46DOPC  H18R 6299   9.826   3.231   4.248  1.2116 -1.6968 -3.4337
   46DOPC  H18S 6300   9.973   3.199   4.343  0.6378  2.6616  2.9134
   46DOPC  H18T 6301   9.971   3.283   4.174 -0.5770 -0.9110  0.0971
   46DOPC   C33 6302   9.671   4.575   5.151 -0.0475  0.1285 -0.1183
   46DOPC   H3X 6303   9.711   4.499   5.222 -2.7421  0.1638  1.5972
   46DOPC   H3Y 6304   9.739   4.658   5.123 -1.0984  1.7537  1.8805
   46DOPC   C34 6305   9.654   4.486   5.028 -0.4689 -1.0607  0.1042
   46DOPC   H4X 6306   9.580   4.537   4.963 -0.3273  1.1030  1.5347
   46DOPC   H4Y 6307   9.608   4.392   5.066 -2.4113 -0.1760  0.0154
   46DOPC   C35 6308   9.781   4.459   4.948 -0.0825 -0.2388  0.6552
   46DOPC   H5X 6309   9.863   4.426   5.015  0.0178  1.4325  1.4132
   46DOPC   H5Y 6310   9.815   4.557   4.909  1.9223 -0.5041  1.6003
   46DOPC   C36 6311   9.768   4.346   4.840 -0.2031  0.3117  0.1613
   46DOPC   H6X 6312   9.871   4.303   4.833 -0.0670  0.5830  0.4883
   46DOPC   H6Y 6313   9.692   4.274   4.877 -0.3228  0.5484  0.3774
   46DOPC   C37 6314   9.725   4.408   4.705 -0.1099 -0.6465  0.7125
   46DOPC   H7X 6315   9.620   4.442   4.712  0.1762  0.6855 -0.9699
   46DOPC   H7Y 6316   9.788   4.497   4.685 -1.3301  0.7328  2.6446
   46DOPC   C38 6317   9.736   4.301   4.590  0.0005 -0.3923  0.4374
   46DOPC   H8X 6318   9.840   4.261   4.586  0.5832  1.1247 -2.8669
   46DOPC   H8Y 6319   9.718   4.359   4.497 -1.2055  2.1607  2.1395
   46DOPC   C39 6320   9.645   4.189   4.598 -0.0567  0.2979 -0.0930
   46DOPC   H9X 6321   9.656   4.123   4.685 -2.3324  0.2416  0.2213
   46DOPC  C310 6322   9.536   4.166   4.525  0.0004 -0.0747  0.4229
   46DOPC  H10X 6323   9.476   4.075   4.540  0.3332 -0.5863 -1.1230
   46DOPC  C311 6324   9.497   4.249   4.402  0.3050 -0.6586 -0.1118
   46DOPC  H11X 6325   9.570   4.223   4.322  1.3434  2.8324 -0.4362
   46DOPC  H11Y 6326   9.510   4.356   4.427  0.1076 -0.3947 -1.1025
   46DOPC  C312 6327   9.354   4.209   4.357 -1.0324 -0.2657  0.5277
   46DOPC  H12X 6328   9.274   4.233   4.429  0.8319 -0.0329  2.6441
   46DOPC  H12Y 6329   9.350   4.099   4.341  0.7883 -0.0046 -2.5967
   46DOPC  C313 6330   9.315   4.285   4.229  0.0191  0.0245  0.1691
   46DOPC  H13X 6331   9.325   4.392   4.258  0.1384  1.0446 -3.2700
   46DOPC  H13Y 6332   9.395   4.264   4.155  0.4446 -0.3070  0.7100
   46DOPC  C314 6333   9.182   4.239   4.174  0.0666  0.0601  0.2071
   46DOPC  H14X 6334   9.195   4.134   4.140 -0.0241  0.3250 -0.6725
   46DOPC  H14Y 6335   9.104   4.233   4.254  0.1382  0.2827  0.2950
   46DOPC  C315 6336   9.127   4.318   4.057  1.0225 -0.1722 -0.1777
   46DOPC  H15X 6337   9.195   4.299   3.970  0.1222 -2.0224 -0.5290
   46DOPC  H15Y 6338   9.113   4.426   4.078  0.6179 -0.2701  0.0676
   46DOPC  C316 6339   8.988   4.255   4.009 -0.3002 -0.3366 -0.2078
   46DOPC  H16X 6340   9.012   4.151   3.976 -0.0513 -0.0713 -0.8901
   46DOPC  H16Y 6341   8.917   4.271   4.093 -0.3311 -0.4676 -0.2094
   46DOPC  C317 6342   8.940   4.324   3.881  0.6013  0.3642  0.0568
   46DOPC  H17X 6343   9.012   4.318   3.796  1.7050 -2.3496  1.0858
   46DOPC  H17Y 6344   8.860   4.259   3.839  2.5037  0.3955 -4.1365
   46DOPC  C318 6345   8.881   4.461   3.883  0.0640 -0.6582  0.3531
   46DOPC  H18X 6346   8.793   4.468   3.951  0.5152  1.3477  0.7891
   46DOPC  H18Y 6347   8.950   4.538   3.924 -2.2997  0.8904  1.6793
   46DOPC  H18Z 6348   8.859   4.491   3.778  1.1202  4.2005  1.2710
   47DOPC     N 6349  11.025   4.836   6.059 -0.0727  0.2588 -0.0761
   47DOPC   C12 6350  11.089   4.897   5.936  0.2151  0.7558 -0.2397
   47DOPC  H12A 6351  11.057   4.841   5.849  0.1592  2.1955 -1.1811
   47DOPC  H12B 6352  11.197   4.892   5.948  0.0776  1.4207  1.5935
   47DOPC   C13 6353  10.871   4.847   6.046 -0.0162  0.8594 -0.4305
   47DOPC  H13A 6354  10.833   4.781   5.970  0.8789 -0.9237  0.6103
   47DOPC  H13B 6355  10.829   4.821   6.142  0.5404  1.6791  0.0492
   47DOPC  H13C 6356  10.840   4.948   6.023 -1.2047  0.5838 -0.0617
   47DOPC   C14 6357  11.072   4.906   6.189  0.2413 -0.0341  0.5827
   47DOPC  H14A 6358  11.005   4.893   6.273  0.5023 -2.1416  0.5315
   47DOPC  H14B 6359  11.166   4.865   6.222  0.2149 -1.1926 -0.7012
   47DOPC  H14C 6360  11.065   5.013   6.180 -0.2352  0.0810  2.1259
   47DOPC   C15 6361  11.053   4.686   6.071  0.0995  0.0229  0.1212
   47DOPC  H15A 6362  11.155   4.662   6.096 -0.1162  1.3321  2.5989
   47DOPC  H15B 6363  11.041   4.644   5.973  2.4986 -0.5039 -0.0102
   47DOPC  H15C 6364  10.987   4.649   6.148 -1.7334  1.3705 -0.7006
   47DOPC   C11 6365  11.045   5.043   5.904  0.0108  0.0586 -0.9647
   47DOPC  H11A 6366  11.068   5.112   5.988  0.8842 -2.2380  0.7803
   47DOPC  H11B 6367  11.107   5.083   5.821  2.0511  1.8210  1.2662
   47DOPC     P 6368  10.845   5.143   5.748  0.2141 -0.2996 -0.2563
   47DOPC   O13 6369  10.897   5.282   5.754 -0.3884  0.3300  0.3776
   47DOPC   O14 6370  10.693   5.128   5.760 -0.2859 -0.1467  0.4349
   47DOPC   O12 6371  10.901   5.064   5.878 -0.4232  0.0139  0.5247
   47DOPC   O11 6372  10.897   5.064   5.623  0.2183  0.4456 -0.1839
   47DOPC    C1 6373  10.996   5.120   5.534 -0.1877 -1.1448 -0.5812
   47DOPC    HA 6374  11.091   5.070   5.563  0.7708 -0.3001 -2.1191
   47DOPC    HB 6375  11.011   5.230   5.547 -0.4569 -1.2485  0.7824
   47DOPC    C2 6376  10.963   5.099   5.389  0.8487  0.1906  0.7799
   47DOPC    HS 6377  10.864   5.149   5.383  0.5618 -0.4003  0.5718
   47DOPC   O21 6378  10.958   4.960   5.366 -0.2158 -0.1229 -0.3140
   47DOPC   C21 6379  10.860   4.915   5.289 -0.8085 -0.9847  0.1799
   47DOPC   O22 6380  10.768   4.972   5.245 -0.8766  0.4089  0.9243
   47DOPC   C22 6381  10.883   4.771   5.268 -0.1036  0.4933  0.1126
   47DOPC   H2R 6382  10.786   4.718   5.274 -1.0002  2.0586 -0.0158
   47DOPC   H2S 6383  10.937   4.729   5.356 -0.6315  2.4035  1.4180
   47DOPC    C3 6384  11.060   5.176   5.286  0.2649 -0.1851 -0.6212
   47DOPC    HX 6385  11.161   5.139   5.313 -0.3994 -0.5670  1.6043
   47DOPC    HY 6386  11.045   5.285   5.305 -0.9391 -0.2790 -0.9966
   47DOPC   O31 6387  11.039   5.139   5.153 -0.7297 -0.3644  1.0322
   47DOPC   C31 6388  10.930   5.183   5.086 -0.1306  0.4539  0.2590
   47DOPC   O32 6389  10.848   5.261   5.126  0.1355 -0.5342 -0.5357
   47DOPC   C32 6390  10.928   5.124   4.945 -0.1813  0.3664 -0.1442
   47DOPC   H2X 6391  11.016   5.156   4.886 -1.1751  0.3637 -1.6910
   47DOPC   H2Y 6392  10.946   5.015   4.961  1.1876  0.7157  0.8480
   47DOPC   C23 6393  10.938   4.723   5.128 -0.3749  0.2244 -0.2788
   47DOPC   H3R 6394  11.041   4.759   5.108 -0.9396  1.5281 -0.9713
   47DOPC   H3S 6395  10.869   4.779   5.061  1.3622  1.8025 -0.8142
   47DOPC   C24 6396  10.923   4.571   5.109  0.0917 -0.0912 -0.1220
   47DOPC   H4R 6397  10.829   4.529   5.150  0.8719 -1.0034  0.7900
   47DOPC   H4S 6398  11.001   4.513   5.164 -0.3593  1.3261  2.1528
   47DOPC   C25 6399  10.921   4.532   4.960 -0.3812 -0.0333  0.2561
   47DOPC   H5R 6400  10.852   4.596   4.901 -1.7593 -4.5195 -3.5289
   47DOPC   H5S 6401  10.882   4.428   4.953  0.3659 -0.2729 -0.5768
   47DOPC   C26 6402  11.061   4.542   4.893 -0.0284  0.2650  0.5654
   47DOPC   H6R 6403  11.127   4.460   4.929 -0.2741 -0.7784 -1.2444
   47DOPC   H6S 6404  11.110   4.640   4.913  0.0878  0.3364 -0.0610
   47DOPC   C27 6405  11.052   4.529   4.740 -0.2854 -0.5087 -0.5788
   47DOPC   H7R 6406  10.986   4.608   4.697  0.2007  0.3837  0.2597
   47DOPC   H7S 6407  11.000   4.434   4.718 -0.2452 -0.3382 -1.4321
   47DOPC   C28 6408  11.183   4.534   4.664 -0.7410  0.6366 -0.3196
   47DOPC   H8R 6409  11.238   4.629   4.682 -0.8079  0.7856 -0.8844
   47DOPC   H8S 6410  11.166   4.529   4.554  0.0049  0.2515 -0.4216
   47DOPC   C29 6411  11.277   4.418   4.705 -0.4049  0.0658 -0.6637
   47DOPC   H9R 6412  11.351   4.456   4.777 -0.2655  1.4865 -1.5246
   47DOPC  C210 6413  11.303   4.309   4.633 -0.8528 -0.0104 -0.1734
   47DOPC  H10R 6414  11.370   4.230   4.671 -0.5667 -1.3621 -3.1806
   47DOPC  C211 6415  11.241   4.272   4.507  0.2206 -0.0999 -0.2875
   47DOPC  H11R 6416  11.134   4.302   4.506 -0.9733 -3.8193 -3.0439
   47DOPC  H11S 6417  11.251   4.162   4.504 -2.1974 -0.3730 -2.9791
   47DOPC  C212 6418  11.341   4.328   4.397  0.0370  0.1500  0.4361
   47DOPC  H12R 6419  11.438   4.276   4.411  0.1988  0.0827 -0.8484
   47DOPC  H12S 6420  11.367   4.436   4.395  1.0502 -0.0958 -0.8759
   47DOPC  C213 6421  11.291   4.299   4.256  0.2444  0.6710  0.0664
   47DOPC  H13R 6422  11.226   4.383   4.225  1.7394  2.0969  0.6298
   47DOPC  H13S 6423  11.236   4.203   4.264  1.3823 -0.0161 -0.0971
   47DOPC  C214 6424  11.415   4.283   4.155  0.4098 -0.2232 -0.2568
   47DOPC  H14R 6425  11.479   4.206   4.202  1.3225  2.8319  4.2208
   47DOPC  H14S 6426  11.467   4.381   4.154  0.1322 -0.0364 -2.8529
   47DOPC  C215 6427  11.363   4.249   4.007 -0.4595 -0.0962 -0.5165
   47DOPC  H15R 6428  11.439   4.296   3.941  1.0360 -0.6820  0.7390
   47DOPC  H15S 6429  11.268   4.303   3.989 -0.3627  0.3548  0.2946
   47DOPC  C216 6430  11.358   4.098   3.982 -0.0732 -0.5536 -0.2490
   47DOPC  H16R 6431  11.296   4.045   4.058 -1.8137 -1.6290 -2.3143
   47DOPC  H16S 6432  11.458   4.054   4.002  0.1535 -1.0528 -2.2660
   47DOPC  C217 6433  11.330   4.047   3.841  0.3805 -0.1313  0.0288
   47DOPC  H17R 6434  11.400   4.074   3.759 -0.2756  3.8115  0.5502
   47DOPC  H17S 6435  11.230   4.089   3.818 -0.3142 -2.2568 -1.0619
   47DOPC  C218 6436  11.313   3.899   3.856 -0.6721 -0.0853 -0.2778
   47DOPC  H18R 6437  11.410   3.855   3.887  0.6450  2.4701 -0.4982
   47DOPC  H18S 6438  11.289   3.861   3.754 -0.3279  1.2977 -0.8969
   47DOPC  H18T 6439  11.240   3.878   3.937 -1.1849 -1.8421 -1.1476
   47DOPC   C33 6440  10.792   5.148   4.873  0.5095 -0.4100 -0.2311
   47DOPC   H3X 6441  10.820   5.191   4.775  4.8334  1.3255  1.5296
   47DOPC   H3Y 6442  10.729   5.224   4.925 -2.7828 -1.3693 -2.4898
   47DOPC   C34 6443  10.696   5.030   4.850 -0.2020  0.7396 -0.3787
   47DOPC   H4X 6444  10.641   4.994   4.939  0.3876  1.2196  0.1845
   47DOPC   H4Y 6445  10.754   4.936   4.833  0.1038  0.7818  0.4074
   47DOPC   C35 6446  10.598   5.062   4.735 -0.4703  0.0486 -0.0852
   47DOPC   H5X 6447  10.660   5.077   4.644  0.5764 -1.3947  0.3618
   47DOPC   H5Y 6448  10.543   5.157   4.755 -0.7679  0.0931 -1.0510
   47DOPC   C36 6449  10.503   4.955   4.716  0.1308 -0.5113  0.6534
   47DOPC   H6X 6450  10.543   4.852   4.704  0.7261 -0.5824  2.8356
   47DOPC   H6Y 6451  10.436   4.959   4.804  0.8103 -0.6216  1.1840
   47DOPC   C37 6452  10.416   4.977   4.590 -0.0258  0.7274 -0.3196
   47DOPC   H7X 6453  10.335   4.901   4.594  2.5570 -2.1924  0.9577
   47DOPC   H7Y 6454  10.365   5.072   4.615  1.3361  1.3973 -0.0150
   47DOPC   C38 6455  10.494   4.965   4.456  0.1248 -0.1682 -0.1660
   47DOPC   H8X 6456  10.563   4.878   4.467  3.8742  2.4371 -1.1317
   47DOPC   H8Y 6457  10.561   5.052   4.443 -2.1130  1.4672 -1.2934
   47DOPC   C39 6458  10.394   4.953   4.340  0.5762  0.0970 -0.4999
   47DOPC   H9X 6459  10.330   5.039   4.315 -1.3753 -1.0206  0.3494
   47DOPC  C310 6460  10.352   4.843   4.280  0.3407  0.2471 -0.1671
   47DOPC  H10X 6461  10.270   4.856   4.208  0.4186 -1.7153 -0.6605
   47DOPC  C311 6462  10.382   4.700   4.315 -0.2157  0.6437 -0.7752
   47DOPC  H11X 6463  10.288   4.644   4.297  0.1713  0.2923 -1.7322
   47DOPC  H11Y 6464  10.413   4.680   4.420  1.3671 -2.1877 -1.6827
   47DOPC  C312 6465  10.496   4.632   4.227  0.1855  0.0599  0.4843
   47DOPC  H12X 6466  10.494   4.528   4.266  0.7611 -0.8180 -1.7176
   47DOPC  H12Y 6467  10.593   4.675   4.259  0.8053 -1.3305  0.5535
   47DOPC  C313 6468  10.472   4.626   4.070  0.6924  0.2648  0.3421
   47DOPC  H13X 6469  10.371   4.590   4.042  1.0569 -0.1445 -0.4958
   47DOPC  H13Y 6470  10.480   4.732   4.036  2.6487 -0.3953 -1.4684
   47DOPC  C314 6471  10.564   4.525   3.992  0.3663 -0.8090  0.6288
   47DOPC  H14X 6472  10.566   4.535   3.882  2.4828 -0.2021  0.6804
   47DOPC  H14Y 6473  10.671   4.549   4.011  0.7605  0.6763 -2.7520
   47DOPC  C315 6474  10.530   4.380   4.034 -0.1801 -0.0715 -0.0760
   47DOPC  H15X 6475  10.472   4.385   4.128  2.4734  0.3877  1.6660
   47DOPC  H15Y 6476  10.622   4.321   4.057  2.2534  2.5596 -2.2079
   47DOPC  C316 6477  10.446   4.303   3.925  0.2471  1.3931 -0.1544
   47DOPC  H16X 6478  10.498   4.335   3.832  0.9193 -1.0337 -0.6945
   47DOPC  H16Y 6479  10.463   4.195   3.945 -1.2031  0.8733 -1.5859
   47DOPC  C317 6480  10.296   4.325   3.915  0.1918  0.4513  0.1716
   47DOPC  H17X 6481  10.253   4.325   4.018 -1.4043 -0.5519 -0.4517
   47DOPC  H17Y 6482  10.281   4.429   3.879 -0.0981 -0.4802 -2.5818
   47DOPC  C318 6483  10.222   4.228   3.825  0.2313 -0.3448 -0.4833
   47DOPC  H18X 6484  10.115   4.260   3.825  0.5303  0.7096  0.3603
   47DOPC  H18Y 6485  10.258   4.230   3.719 -0.0800 -0.2572 -0.5906
   47DOPC  H18Z 6486  10.231   4.127   3.868 -0.7533 -0.7073 -1.0792
   48DOPC     N 6487  10.318  11.243   6.708  0.1879  0.0063 -0.1063
   48DOPC   C12 6488  10.346  11.164   6.590 -0.1003 -0.4793 -0.2083
   48DOPC  H12A 6489  10.251  11.113   6.579 -1.4413  1.7091  0.6102
   48DOPC  H12B 6490  10.425  11.094   6.610  1.3140  0.7736 -1.2026
   48DOPC   C13 6491  10.320  11.151   6.829 -0.1746  0.7513 -0.1957
   48DOPC  H13A 6492  10.417  11.109   6.851 -0.2284  0.2491 -0.8929
   48DOPC  H13B 6493  10.286  11.212   6.912  1.1146  2.0736 -0.5929
   48DOPC  H13C 6494  10.249  11.072   6.810  0.2299  0.3874 -0.1989
   48DOPC   C14 6495  10.182  11.305   6.705 -0.0252  0.3231 -0.5147
   48DOPC  H14A 6496  10.108  11.227   6.705  0.6126 -0.3589  1.7935
   48DOPC  H14B 6497  10.169  11.357   6.799  2.3651  1.8108 -0.9206
   48DOPC  H14C 6498  10.163  11.373   6.623 -0.5851  0.0788 -0.5900
   48DOPC   C15 6499  10.425  11.342   6.731  0.3207 -0.1797 -0.4586
   48DOPC  H15A 6500  10.507  11.285   6.772  0.6535  1.0946  0.7527
   48DOPC  H15B 6501  10.396  11.416   6.804 -1.7641 -2.0253  0.6904
   48DOPC  H15C 6502  10.454  11.396   6.642  2.1880  0.7059  0.6168
   48DOPC   C11 6503  10.379  11.237   6.451  0.0625 -0.5309 -0.1606
   48DOPC  H11A 6504  10.464  11.307   6.460 -1.0817  0.8135  0.7046
   48DOPC  H11B 6505  10.408  11.164   6.372  0.3395 -0.4294 -0.1525
   48DOPC     P 6506  10.151  11.248   6.312  0.2005 -0.0985 -0.0886
   48DOPC   O13 6507  10.049  11.347   6.266 -0.1222 -0.7242  0.0577
   48DOPC   O14 6508  10.100  11.127   6.387  0.2409 -0.5166  0.0968
   48DOPC   O12 6509  10.268  11.312   6.400  0.7020 -0.4417 -0.3078
   48DOPC   O11 6510  10.235  11.198   6.192 -0.0647 -0.8307  0.4180
   48DOPC    C1 6511  10.317  11.278   6.109 -0.4944  0.2255  0.1051
   48DOPC    HA 6512  10.422  11.251   6.133 -1.0701 -1.3194  1.0158
   48DOPC    HB 6513  10.306  11.388   6.119  0.3222  0.3905 -0.6712
   48DOPC    C2 6514  10.302  11.258   5.957  0.0960  0.0073 -0.1813
   48DOPC    HS 6515  10.365  11.334   5.906 -0.3269  0.0523 -0.6473
   48DOPC   O21 6516  10.169  11.291   5.931  0.0483 -0.6623  0.4014
   48DOPC   C21 6517  10.151  11.422   5.898  0.1877 -0.0433 -0.0624
   48DOPC   O22 6518  10.241  11.506   5.899  0.0603 -0.1306 -0.4487
   48DOPC   C22 6519  10.007  11.455   5.850 -0.5067  0.4848 -0.1815
   48DOPC   H2R 6520   9.997  11.565   5.848  1.2590  0.6700 -0.0979
   48DOPC   H2S 6521   9.941  11.408   5.926  0.6386  0.1418  0.6281
   48DOPC    C3 6522  10.338  11.120   5.907 -0.3727  0.3198 -0.0556
   48DOPC    HX 6523  10.265  11.046   5.945 -0.6705  0.8514  0.4200
   48DOPC    HY 6524  10.436  11.088   5.949  0.0442  1.7254  0.0982
   48DOPC   O31 6525  10.331  11.128   5.761 -0.2414 -0.0101 -0.0689
   48DOPC   C31 6526  10.321  11.017   5.686  0.0458 -0.5242 -0.1355
   48DOPC   O32 6527  10.342  10.903   5.730  0.7974  0.0051 -0.0015
   48DOPC   C32 6528  10.266  11.046   5.545  0.5397  0.3386 -0.1000
   48DOPC   H2X 6529  10.277  10.957   5.481 -2.6868 -1.2511  1.3350
   48DOPC   H2Y 6530  10.156  11.061   5.542  0.5884  1.3265  1.5399
   48DOPC   C23 6531   9.959  11.393   5.717 -0.4775 -0.1317  0.1459
   48DOPC   H3R 6532   9.850  11.413   5.704 -0.9620 -2.6129 -0.1321
   48DOPC   H3S 6533   9.964  11.282   5.711 -2.4703 -0.2146 -1.2130
   48DOPC   C24 6534  10.036  11.449   5.599  0.1923  0.6157 -0.2589
   48DOPC   H4R 6535  10.133  11.395   5.604 -1.8059 -3.2463  1.1933
   48DOPC   H4S 6536  10.065  11.556   5.612  1.1469  0.1840  1.4675
   48DOPC   C25 6537   9.970  11.426   5.466  0.9591 -0.1345 -0.4236
   48DOPC   H5R 6538   9.866  11.463   5.469  1.5368  1.5371 -0.3937
   48DOPC   H5S 6539   9.954  11.317   5.448 -2.3268  0.6065 -3.0987
   48DOPC   C26 6540  10.042  11.495   5.345 -0.9750 -0.0593  0.4491
   48DOPC   H6R 6541  10.150  11.469   5.351 -0.5870  1.1486 -0.8017
   48DOPC   H6S 6542  10.036  11.603   5.371 -0.3918  0.2659 -0.7068
   48DOPC   C27 6543   9.982  11.460   5.209 -0.9437  0.1178  0.6778
   48DOPC   H7R 6544   9.875  11.487   5.196 -1.3633 -2.7973 -3.9397
   48DOPC   H7S 6545   9.986  11.350   5.203  1.1461  0.1965 -0.3972
   48DOPC   C28 6546  10.060  11.527   5.101 -0.4510  0.2949 -0.3043
   48DOPC   H8R 6547  10.165  11.546   5.130 -0.5959  1.6225 -0.5799
   48DOPC   H8S 6548  10.021  11.629   5.082 -0.5138 -0.0628 -2.3414
   48DOPC   C29 6549  10.058  11.444   4.976  0.2066 -0.1246  0.0174
   48DOPC   H9R 6550  10.128  11.359   4.978 -0.5852 -0.9179 -2.0623
   48DOPC  C210 6551   9.987  11.459   4.861 -0.2531  0.6903  0.0872
   48DOPC  H10R 6552  10.007  11.384   4.783  0.6457  0.5473  0.4408
   48DOPC  C211 6553   9.892  11.576   4.830 -0.4921  0.1698 -0.0576
   48DOPC  H11R 6554   9.890  11.642   4.920  0.4354  1.0408 -0.6511
   48DOPC  H11S 6555   9.788  11.539   4.817 -0.3594 -0.4485  0.6160
   48DOPC  C212 6556   9.939  11.680   4.725  0.0899 -0.3049 -0.9654
   48DOPC  H12R 6557  10.036  11.719   4.763 -0.2415  0.7448 -1.1681
   48DOPC  H12S 6558   9.870  11.766   4.715  0.3688 -0.1482 -1.5260
   48DOPC  C213 6559   9.972  11.622   4.586  0.2176 -0.0821  0.0145
   48DOPC  H13R 6560   9.882  11.584   4.534  1.2484  1.6525 -3.3318
   48DOPC  H13S 6561  10.030  11.529   4.601 -1.8025 -1.3087  0.6303
   48DOPC  C214 6562  10.032  11.721   4.485 -0.4294  0.8210 -0.9330
   48DOPC  H14R 6563  10.134  11.742   4.524 -0.5113 -2.1589  1.2520
   48DOPC  H14S 6564   9.970  11.812   4.474 -2.5594 -0.2811  1.1524
   48DOPC  C215 6565  10.067  11.666   4.345 -0.2866 -0.5602  0.3406
   48DOPC  H15R 6566   9.968  11.648   4.298 -1.6124  0.3927  2.6092
   48DOPC  H15S 6567  10.126  11.572   4.344 -0.6028 -0.7602 -0.7005
   48DOPC  C216 6568  10.143  11.769   4.271  0.3635  1.2528  0.3161
   48DOPC  H16R 6569  10.234  11.805   4.323  2.2968 -1.2646 -1.0752
   48DOPC  H16S 6570  10.084  11.862   4.256 -1.3632  0.4508  1.8096
   48DOPC  C217 6571  10.195  11.720   4.130 -0.1381  0.0856 -0.3694
   48DOPC  H17R 6572  10.109  11.699   4.063 -0.4296  2.0583 -0.6640
   48DOPC  H17S 6573  10.242  11.619   4.136  2.9644  1.4546  0.5134
   48DOPC  C218 6574  10.287  11.818   4.059 -0.1510 -0.4458 -0.5220
   48DOPC  H18R 6575  10.379  11.817   4.122  1.5360 -3.5352 -2.7729
   48DOPC  H18S 6576  10.249  11.923   4.059  0.0224 -0.3639 -1.9844
   48DOPC  H18T 6577  10.330  11.792   3.960  0.5294 -1.3906  0.0058
   48DOPC   C33 6578  10.334  11.166   5.476 -0.2292 -0.4373  0.6977
   48DOPC   H3X 6579  10.431  11.201   5.517  1.1897 -2.2076 -0.9489
   48DOPC   H3Y 6580  10.271  11.248   5.517  0.3370  0.5683 -0.3834
   48DOPC   C34 6581  10.310  11.173   5.325 -0.5954 -0.7238 -0.7232
   48DOPC   H4X 6582  10.294  11.278   5.290 -3.1092 -0.6106  0.5656
   48DOPC   H4Y 6583  10.215  11.123   5.300 -0.4061 -0.4438 -2.1096
   48DOPC   C35 6584  10.426  11.113   5.244  0.3130  0.6236  0.2138
   48DOPC   H5X 6585  10.417  11.002   5.244 -0.1743  0.6460 -0.8823
   48DOPC   H5Y 6586  10.524  11.124   5.295  1.9196 -1.3665 -2.2204
   48DOPC   C36 6587  10.439  11.175   5.107  0.8986 -0.0138  0.1616
   48DOPC   H6X 6588  10.340  11.192   5.059  1.2573  0.6709 -0.3455
   48DOPC   H6Y 6589  10.498  11.269   5.108 -0.2799  0.8152 -2.0783
   48DOPC   C37 6590  10.500  11.076   5.000 -0.5017  0.2994  0.3070
   48DOPC   H7X 6591  10.609  11.067   5.021 -0.3136  1.4309 -0.1391
   48DOPC   H7Y 6592  10.454  10.975   5.003  1.0120 -0.4575 -0.5412
   48DOPC   C38 6593  10.482  11.121   4.861  0.0680  0.0867  0.3565
   48DOPC   H8X 6594  10.372  11.119   4.844  0.0600 -0.1002  0.4274
   48DOPC   H8Y 6595  10.514  11.047   4.785 -1.8908  1.4935 -2.0006
   48DOPC   C39 6596  10.545  11.256   4.826 -0.0215 -1.1198 -0.1723
   48DOPC   H9X 6597  10.645  11.274   4.868  0.6428 -0.0999 -2.1070
   48DOPC  C310 6598  10.480  11.348   4.754 -0.3564 -0.4236  0.6445
   48DOPC  H10X 6599  10.538  11.442   4.754  1.4862 -1.4151 -2.7444
   48DOPC  C311 6600  10.354  11.328   4.678  0.3212 -0.0374  0.1651
   48DOPC  H11X 6601  10.273  11.371   4.741  0.1275  0.7098 -0.5652
   48DOPC  H11Y 6602  10.332  11.220   4.674 -0.1118  0.0922 -2.2242
   48DOPC  C312 6603  10.332  11.379   4.533  0.2550  0.1508 -0.0102
   48DOPC  H12X 6604  10.349  11.489   4.531 -2.1302  0.5735 -0.7555
   48DOPC  H12Y 6605  10.236  11.342   4.491  1.8486 -2.5526 -1.5780
   48DOPC  C313 6606  10.437  11.306   4.451 -0.3904  0.5292 -0.9517
   48DOPC  H13X 6607  10.540  11.329   4.485 -1.1741  1.6875  0.7581
   48DOPC  H13Y 6608  10.418  11.197   4.453 -1.2834  0.6092  3.4212
   48DOPC  C314 6609  10.442  11.357   4.305 -0.3177 -0.0006 -0.0736
   48DOPC  H14X 6610  10.444  11.468   4.309  1.0159  0.1134 -2.3194
   48DOPC  H14Y 6611  10.534  11.317   4.257 -0.5721 -0.3715 -0.2609
   48DOPC  C315 6612  10.312  11.336   4.226 -0.2603 -0.0397  0.0182
   48DOPC  H15X 6613  10.230  11.403   4.260 -0.8531 -1.4546  1.5180
   48DOPC  H15Y 6614  10.285  11.230   4.244 -0.5786  0.0799  0.2381
   48DOPC  C316 6615  10.343  11.368   4.080  0.6448 -0.0294  0.9160
   48DOPC  H16X 6616  10.382  11.471   4.067 -0.2845  0.2196 -0.0850
   48DOPC  H16Y 6617  10.414  11.295   4.036 -0.6284 -0.1861 -0.9966
   48DOPC  C317 6618  10.215  11.355   3.996 -0.1008 -0.3196 -0.7383
   48DOPC  H17X 6619  10.175  11.253   4.014  0.7897 -0.1900  2.4932
   48DOPC  H17Y 6620  10.139  11.432   4.024  1.6220  0.7510  1.2644
   48DOPC  C318 6621  10.237  11.363   3.841  0.2799 -0.6696  0.0654
   48DOPC  H18X 6622  10.277  11.463   3.816  0.4135  0.3433  3.7566
   48DOPC  H18Y 6623  10.297  11.280   3.797  0.9383 -0.0482 -0.2182
   48DOPC  H18Z 6624  10.139  11.357   3.789  1.1480 -0.0518 -1.7215
   49DOPC     N 6625   0.654  11.630   6.185  0.3295 -0.6455  0.1909
   49DOPC   C12 6626   0.686  11.756   6.103  0.1548 -0.2059  0.2781
   49DOPC  H12A 6627   0.612  11.762   6.025  0.0613  0.8363  0.4250
   49DOPC  H12B 6628   0.772  11.735   6.040 -1.6624 -0.4721 -2.2547
   49DOPC   C13 6629   0.731  11.624   6.316  0.2358  0.6091  0.1907
   49DOPC  H13A 6630   0.704  11.531   6.364 -1.6951 -0.7599 -3.1464
   49DOPC  H13B 6631   0.834  11.636   6.289  0.2554 -0.0239 -0.0282
   49DOPC  H13C 6632   0.694  11.702   6.381 -2.6278  1.3054 -2.0298
   49DOPC   C14 6633   0.690  11.511   6.095 -0.3276  0.9338 -0.5401
   49DOPC  H14A 6634   0.644  11.427   6.144 -0.2185  0.5005 -1.1700
   49DOPC  H14B 6635   0.653  11.518   5.994 -0.0239  2.9019 -0.5624
   49DOPC  H14C 6636   0.794  11.493   6.118 -0.8727 -3.4127 -0.8108
   49DOPC   C15 6637   0.508  11.631   6.228  0.2371 -0.1257 -0.0830
   49DOPC  H15A 6638   0.491  11.731   6.265  0.8161 -0.4049  0.9827
   49DOPC  H15B 6639   0.495  11.563   6.310 -0.2660 -1.5806 -1.3123
   49DOPC  H15C 6640   0.450  11.612   6.139  0.6417 -0.0452 -0.3711
   49DOPC   C11 6641   0.711  11.900   6.171  0.1693 -0.1641  0.6626
   49DOPC  H11A 6642   0.706  11.980   6.094  0.1913 -0.0702  0.7573
   49DOPC  H11B 6643   0.623  11.923   6.235 -1.6234  1.7084 -2.2407
   49DOPC     P 6644   0.965  11.945   6.201  0.0032  0.2150  0.1924
   49DOPC   O13 6645   1.040  11.824   6.154  0.0044 -0.3077 -0.8255
   49DOPC   O14 6646   1.014  12.030   6.312  0.4471 -0.0730  0.1197
   49DOPC   O12 6647   0.828  11.899   6.251 -0.3794  0.5219 -0.0104
   49DOPC   O11 6648   0.935  12.043   6.084 -0.3140 -0.5156 -0.0033
   49DOPC    C1 6649   1.045  12.082   5.992 -0.1156  0.5561 -0.2204
   49DOPC    HA 6650   1.141  12.087   6.048 -1.6130 -1.8735  2.9054
   49DOPC    HB 6651   1.026  12.189   5.968  0.3806  0.5354 -0.7051
   49DOPC    C2 6652   1.039  12.006   5.862 -0.5670  0.1420 -0.4536
   49DOPC    HS 6653   1.076  11.902   5.869  0.2628  0.4252 -0.4885
   49DOPC   O21 6654   1.133  12.073   5.780  0.5380 -0.4631  0.1918
   49DOPC   C21 6655   1.182  12.005   5.676  0.1646  0.0159  0.0158
   49DOPC   O22 6656   1.187  11.887   5.670 -0.7116  0.8311 -0.3042
   49DOPC   C22 6657   1.233  12.105   5.572 -0.4400 -0.0082  0.3213
   49DOPC   H2R 6658   1.342  12.089   5.581 -0.6515 -0.7708  1.8027
   49DOPC   H2S 6659   1.214  12.212   5.595  1.0303  0.7938 -1.8360
   49DOPC    C3 6660   0.895  11.993   5.801  0.2899 -0.6310 -0.2004
   49DOPC    HX 6661   0.870  12.090   5.754  2.0333  0.1490  0.3701
   49DOPC    HY 6662   0.825  11.972   5.884  0.1764  0.3251 -0.0455
   49DOPC   O31 6663   0.893  11.901   5.689  0.0235 -0.3942 -0.2070
   49DOPC   C31 6664   0.879  11.775   5.712  0.1868  0.4791  0.4953
   49DOPC   O32 6665   0.862  11.724   5.823  0.1144 -0.2934  0.6416
   49DOPC   C32 6666   0.888  11.698   5.580  0.0091 -0.2642  0.1033
   49DOPC   H2X 6667   0.837  11.759   5.503 -0.5178  0.2425  0.8341
   49DOPC   H2Y 6668   0.996  11.678   5.564  0.2448 -0.2869  1.5514
   49DOPC   C23 6669   1.186  12.081   5.430  0.6978  0.1792 -0.1345
   49DOPC   H3R 6670   1.087  12.131   5.423  0.5083 -0.4266 -2.4605
   49DOPC   H3S 6671   1.167  11.971   5.421  0.5119  0.0301  1.5645
   49DOPC   C24 6672   1.281  12.140   5.323 -0.2694 -0.4312  0.1085
   49DOPC   H4R 6673   1.380  12.089   5.326  0.7678  1.5037  0.2891
   49DOPC   H4S 6674   1.309  12.243   5.352  0.1141 -0.5487  0.1713
   49DOPC   C25 6675   1.224  12.146   5.184 -0.0598 -0.7305  0.0575
   49DOPC   H5R 6676   1.294  12.209   5.127  0.9434 -0.7559  1.2317
   49DOPC   H5S 6677   1.129  12.202   5.195  1.8037  2.6770 -0.0827
   49DOPC   C26 6678   1.210  12.010   5.119 -0.2776 -0.2444 -0.0413
   49DOPC   H6R 6679   1.135  11.945   5.168 -0.2273  0.0681  0.4564
   49DOPC   H6S 6680   1.306  11.953   5.125  0.1065  0.1109 -2.1046
   49DOPC   C27 6681   1.200  12.033   4.969  0.1568  0.4625 -0.3703
   49DOPC   H7R 6682   1.291  12.093   4.951  1.1481 -0.2707  1.8543
   49DOPC   H7S 6683   1.109  12.088   4.935  1.1879  0.9271 -2.5867
   49DOPC   C28 6684   1.199  11.903   4.879  0.4997  0.5289  0.3209
   49DOPC   H8R 6685   1.166  11.935   4.778  1.4178  0.9732  0.1525
   49DOPC   H8S 6686   1.107  11.851   4.915  0.4440  2.3724  3.1612
   49DOPC   C29 6687   1.330  11.826   4.885 -0.1332 -0.0344 -0.3936
   49DOPC   H9R 6688   1.347  11.773   4.979  2.3716 -2.1407 -1.8973
   49DOPC  C210 6689   1.420  11.814   4.787 -0.7186 -0.5449  0.4693
   49DOPC  H10R 6690   1.504  11.748   4.810  0.1135 -0.1489 -1.2979
   49DOPC  C211 6691   1.416  11.883   4.649 -0.2701 -0.7168  0.1948
   49DOPC  H11R 6692   1.358  11.978   4.646 -1.3653 -1.3773 -1.8145
   49DOPC  H11S 6693   1.347  11.820   4.589 -1.6879 -0.3379  1.3638
   49DOPC  C212 6694   1.557  11.914   4.582  0.2305 -0.3706  0.4768
   49DOPC  H12R 6695   1.609  11.818   4.563  0.9956 -0.3673  2.4220
   49DOPC  H12S 6696   1.617  11.963   4.661  0.7419 -0.7159  0.3037
   49DOPC  C213 6697   1.553  11.993   4.452 -0.4528 -0.1707 -0.3604
   49DOPC  H13R 6698   1.653  12.035   4.429  0.2753 -2.4471 -1.6175
   49DOPC  H13S 6699   1.491  12.084   4.466  0.1521 -0.0009  1.5153
   49DOPC  C214 6700   1.488  11.909   4.340 -0.6081 -0.1401 -0.3763
   49DOPC  H14R 6701   1.382  11.884   4.361  0.0703 -1.8125  1.3487
   49DOPC  H14S 6702   1.540  11.811   4.329  0.6069  0.4303  0.1196
   49DOPC  C215 6703   1.477  11.982   4.208 -0.2926 -0.2523 -0.0231
   49DOPC  H15R 6704   1.582  12.012   4.188  0.5102 -1.8472  1.5641
   49DOPC  H15S 6705   1.415  12.071   4.234  1.3540  0.3884  1.9567
   49DOPC  C216 6706   1.430  11.909   4.087  0.0431  0.1907 -0.0864
   49DOPC  H16R 6707   1.323  11.878   4.088  0.2981 -0.7040  0.1701
   49DOPC  H16S 6708   1.495  11.820   4.074 -0.3303 -0.5076  2.3469
   49DOPC  C217 6709   1.451  11.997   3.959 -0.4262 -0.8790 -0.2159
   49DOPC  H17R 6710   1.556  12.031   3.967  0.0456 -2.2176 -0.3565
   49DOPC  H17S 6711   1.380  12.082   3.962 -1.2851 -1.2707 -4.0701
   49DOPC  C218 6712   1.433  11.928   3.825  0.0920  0.2330 -0.2754
   49DOPC  H18R 6713   1.497  11.838   3.818  0.2914  0.1731  1.7844
   49DOPC  H18S 6714   1.470  11.997   3.746  2.6336 -0.2465  0.4143
   49DOPC  H18T 6715   1.325  11.911   3.803  0.0981  0.1243 -0.2217
   49DOPC   C33 6716   0.802  11.571   5.582  0.0544 -0.2334  0.2425
   49DOPC   H3X 6717   0.696  11.602   5.595  0.3176  1.1275 -0.6990
   49DOPC   H3Y 6718   0.823  11.501   5.666  0.4544 -2.3345 -1.4946
   49DOPC   C34 6719   0.812  11.499   5.444  0.3538 -0.3626  0.2344
   49DOPC   H4X 6720   0.916  11.464   5.424  0.3700 -0.0620 -0.2189
   49DOPC   H4Y 6721   0.786  11.576   5.368  0.5158 -0.1803  0.3632
   49DOPC   C35 6722   0.717  11.384   5.448 -0.7761  0.3372  0.1652
   49DOPC   H5X 6723   0.616  11.422   5.473 -0.9720  0.2602 -0.4955
   49DOPC   H5Y 6724   0.742  11.307   5.524  2.4206  2.8875  1.9863
   49DOPC   C36 6725   0.690  11.317   5.310 -0.6137  0.5142 -0.2645
   49DOPC   H6X 6726   0.786  11.265   5.290  0.3553  1.3531  1.9303
   49DOPC   H6Y 6727   0.599  11.255   5.317 -0.6554  0.2824 -2.1682
   49DOPC   C37 6728   0.657  11.412   5.192  0.6376  0.0753  0.0482
   49DOPC   H7X 6729   0.587  11.488   5.232  0.9959 -0.3767  1.6221
   49DOPC   H7Y 6730   0.746  11.462   5.148 -0.4389  0.4615 -1.7576
   49DOPC   C38 6731   0.600  11.330   5.076  0.7750  0.4669  0.3145
   49DOPC   H8X 6732   0.516  11.266   5.109  0.3770  1.0375  0.4352
   49DOPC   H8Y 6733   0.687  11.266   5.051  2.2783  2.7896 -0.7607
   49DOPC   C39 6734   0.543  11.420   4.965 -0.0535  0.0742 -1.0218
   49DOPC   H9X 6735   0.507  11.519   4.994  0.3381 -0.5299  1.7357
   49DOPC  C310 6736   0.567  11.397   4.834 -0.1580  0.4483 -0.5858
   49DOPC  H10X 6737   0.534  11.467   4.755 -0.2677  0.3715 -0.6090
   49DOPC  C311 6738   0.613  11.264   4.776 -0.0754  0.9044  0.0267
   49DOPC  H11X 6739   0.542  11.234   4.696 -0.3827  2.9993 -0.5374
   49DOPC  H11Y 6740   0.615  11.173   4.840  0.6495 -0.3984 -1.7551
   49DOPC  C312 6741   0.756  11.258   4.706  0.1735 -0.3743 -0.6239
   49DOPC  H12X 6742   0.760  11.154   4.668  0.2027 -0.9292  0.8416
   49DOPC  H12Y 6743   0.841  11.280   4.775 -0.6920 -0.3434  0.4531
   49DOPC  C313 6744   0.765  11.350   4.590 -0.2407 -0.1130  0.9321
   49DOPC  H13X 6745   0.676  11.332   4.526 -1.2674 -0.1580  2.3272
   49DOPC  H13Y 6746   0.754  11.455   4.626  0.8045 -0.0773  1.1790
   49DOPC  C314 6747   0.896  11.350   4.514 -0.5781  0.6614 -0.6133
   49DOPC  H14X 6748   0.976  11.382   4.584  1.4148 -2.9141 -0.9896
   49DOPC  H14Y 6749   0.921  11.244   4.492 -0.7123  0.7031 -0.9758
   49DOPC  C315 6750   0.894  11.424   4.382  0.2857 -0.2390 -0.1531
   49DOPC  H15X 6751   0.997  11.414   4.342  0.6934  2.3664  0.0851
   49DOPC  H15Y 6752   0.861  11.528   4.400 -0.8552 -0.4116 -1.1171
   49DOPC  C316 6753   0.793  11.374   4.277 -0.0212 -0.7169 -0.5071
   49DOPC  H16X 6754   0.818  11.272   4.240  1.2546 -0.3383 -0.7384
   49DOPC  H16Y 6755   0.694  11.369   4.326  0.5248  1.1825  0.9170
   49DOPC  C317 6756   0.781  11.468   4.148  0.0664  0.1701 -1.2616
   49DOPC  H17X 6757   0.695  11.426   4.093  0.9759 -1.1416 -1.7324
   49DOPC  H17Y 6758   0.773  11.576   4.173  2.5597  0.3415 -0.9138
   49DOPC  C318 6759   0.906  11.459   4.055  0.1504 -0.1321 -0.7010
   49DOPC  H18X 6760   0.980  11.528   4.102 -0.2489 -0.9979  1.2945
   49DOPC  H18Y 6761   0.962  11.364   4.061 -0.9678 -0.7818 -0.3538
   49DOPC  H18Z 6762   0.887  11.482   3.949 -1.0298 -1.7844 -0.8850
   50DOPC     N 6763   5.087   7.647   6.312  0.0086 -0.6636 -0.1924
   50DOPC   C12 6764   4.991   7.659   6.192 -0.2158 -0.1844  0.3413
   50DOPC  H12A 6765   5.035   7.721   6.116  2.6614 -1.2582  1.0055
   50DOPC  H12B 6766   4.912   7.725   6.226 -0.6247  0.4026 -1.5857
   50DOPC   C13 6767   5.101   7.781   6.384 -0.1943  0.0493  0.1233
   50DOPC  H13A 6768   5.085   7.859   6.311 -0.0103 -0.1704 -0.1546
   50DOPC  H13B 6769   5.030   7.790   6.465 -1.0830 -1.3624 -0.4698
   50DOPC  H13C 6770   5.200   7.795   6.426  0.1476  1.0198 -0.9505
   50DOPC   C14 6771   5.222   7.614   6.266  0.0874 -0.2698  0.7013
   50DOPC  H14A 6772   5.291   7.606   6.349 -0.3805  0.0551  1.1244
   50DOPC  H14B 6773   5.221   7.516   6.219  0.6960 -0.6489  1.4568
   50DOPC  H14C 6774   5.272   7.685   6.201 -0.2745 -0.1498  0.5531
   50DOPC   C15 6775   5.042   7.553   6.419 -0.3988 -0.3125  0.7590
   50DOPC  H15A 6776   5.125   7.548   6.488  1.0979  1.0759 -0.8342
   50DOPC  H15B 6777   5.034   7.455   6.374  1.6141 -0.1727  0.0091
   50DOPC  H15C 6778   4.957   7.580   6.479  0.5619 -0.3815  2.2074
   50DOPC   C11 6779   4.926   7.539   6.125 -0.0760  0.5350  0.0371
   50DOPC  H11A 6780   4.865   7.563   6.035  0.3088  0.1563 -0.3271
   50DOPC  H11B 6781   5.009   7.476   6.086 -2.0045 -0.4689 -2.7396
   50DOPC     P 6782   4.713   7.478   6.289 -0.1676 -0.2617  0.1238
   50DOPC   O13 6783   4.713   7.613   6.344 -0.4074 -0.2439  0.0662
   50DOPC   O14 6784   4.707   7.362   6.381  0.0290  0.5359 -0.0634
   50DOPC   O12 6785   4.846   7.456   6.213 -0.1512  0.0557  0.4654
   50DOPC   O11 6786   4.594   7.477   6.179  0.2284  0.5079  0.5299
   50DOPC    C1 6787   4.546   7.362   6.109 -0.2118  1.0278  0.0063
   50DOPC    HA 6788   4.436   7.367   6.114 -0.2518  0.5985 -0.3455
   50DOPC    HB 6789   4.578   7.270   6.162  0.5654  1.7506  0.8444
   50DOPC    C2 6790   4.580   7.346   5.953 -0.4282  0.8197 -0.2934
   50DOPC    HS 6791   4.530   7.253   5.917 -0.2137 -1.2702  4.1258
   50DOPC   O21 6792   4.724   7.335   5.937  0.4067  0.1690  0.2776
   50DOPC   C21 6793   4.777   7.219   5.942  0.3589  0.4235  0.4303
   50DOPC   O22 6794   4.726   7.110   5.957  0.1055  0.1335  0.3373
   50DOPC   C22 6795   4.924   7.233   5.917  0.7349  0.4625 -0.0172
   50DOPC   H2R 6796   4.973   7.287   6.000 -0.2237 -1.2660  1.7541
   50DOPC   H2S 6797   4.942   7.292   5.824  0.7899  0.0261 -0.2874
   50DOPC    C3 6798   4.535   7.469   5.874  0.0381  0.6695 -0.0257
   50DOPC    HX 6799   4.606   7.551   5.898 -0.0192  1.5268 -2.5149
   50DOPC    HY 6800   4.432   7.495   5.904 -0.3446 -0.9687  0.1810
   50DOPC   O31 6801   4.539   7.421   5.741 -0.3413 -0.5874  0.0656
   50DOPC   C31 6802   4.641   7.463   5.667  0.3005  0.0550  0.2775
   50DOPC   O32 6803   4.738   7.529   5.699  0.1145 -0.3868  0.1065
   50DOPC   C32 6804   4.614   7.409   5.523  1.0385 -0.0978  0.3223
   50DOPC   H2X 6805   4.523   7.346   5.530  1.3635 -0.8149 -1.2416
   50DOPC   H2Y 6806   4.585   7.499   5.464 -0.2530 -0.2845  0.6475
   50DOPC   C23 6807   5.004   7.101   5.898 -0.3876 -0.2983  0.1269
   50DOPC   H3R 6808   4.959   7.028   5.969 -2.8612 -0.7491 -1.7702
   50DOPC   H3S 6809   5.108   7.124   5.933 -0.2767  0.1785 -0.5111
   50DOPC   C24 6810   4.996   7.053   5.756 -0.0967 -0.5363  0.0527
   50DOPC   H4R 6811   4.997   7.147   5.698 -3.9058 -0.4486 -0.1211
   50DOPC   H4S 6812   4.903   6.996   5.732  0.1949 -0.7271 -0.6574
   50DOPC   C25 6813   5.116   6.972   5.710 -0.0819  0.0723 -0.1814
   50DOPC   H5R 6814   5.122   6.871   5.756 -1.5723  0.6153  1.3126
   50DOPC   H5S 6815   5.202   7.033   5.745  1.8036 -1.0814 -2.5281
   50DOPC   C26 6816   5.126   6.956   5.558 -0.5374  0.5175 -0.1107
   50DOPC   H6R 6817   5.137   7.053   5.504 -0.7844  1.2017  1.0403
   50DOPC   H6S 6818   5.028   6.916   5.524 -0.5153 -0.3449  0.8156
   50DOPC   C27 6819   5.221   6.845   5.512  0.1296 -0.1855  0.4326
   50DOPC   H7R 6820   5.200   6.755   5.575 -1.4280  1.4032  2.3585
   50DOPC   H7S 6821   5.328   6.873   5.526  0.8836 -2.5804 -0.1846
   50DOPC   C28 6822   5.187   6.816   5.360  0.3516 -1.1104 -0.3271
   50DOPC   H8R 6823   5.211   6.908   5.302 -0.5245 -1.9954 -2.1419
   50DOPC   H8S 6824   5.078   6.800   5.348  0.0407  0.5879 -0.0343
   50DOPC   C29 6825   5.272   6.701   5.307  0.7046 -0.3491  0.9879
   50DOPC   H9R 6826   5.329   6.653   5.388  1.2396  0.3732  1.0543
   50DOPC  C210 6827   5.286   6.662   5.180 -0.5305 -0.3746  0.2994
   50DOPC  H10R 6828   5.362   6.584   5.163  1.4648  1.7564 -0.9646
   50DOPC  C211 6829   5.215   6.713   5.057  0.1707  0.2433  0.2233
   50DOPC  H11R 6830   5.137   6.788   5.084 -1.6759 -1.5117  0.0508
   50DOPC  H11S 6831   5.164   6.636   4.995 -0.9111  0.7288  0.4787
   50DOPC  C212 6832   5.316   6.783   4.972 -0.5600 -0.8083  0.3373
   50DOPC  H12R 6833   5.381   6.699   4.942 -2.1262 -3.8481  4.5064
   50DOPC  H12S 6834   5.374   6.854   5.035  1.1960 -2.1413  0.2858
   50DOPC  C213 6835   5.242   6.851   4.848 -0.0956  0.8216  0.3305
   50DOPC  H13R 6836   5.198   6.946   4.885 -0.8260  0.2756  0.8889
   50DOPC  H13S 6837   5.169   6.776   4.813 -1.3645  2.3712 -0.4683
   50DOPC  C214 6838   5.345   6.905   4.748 -0.9254 -0.2589  0.2423
   50DOPC  H14R 6839   5.419   6.825   4.728 -1.9355 -0.9741 -0.7397
   50DOPC  H14S 6840   5.409   6.986   4.789 -1.8687  1.0471 -0.7693
   50DOPC  C215 6841   5.273   6.960   4.622 -0.1057 -0.7394  0.3382
   50DOPC  H15R 6842   5.198   7.038   4.648  0.2341 -0.5998  0.9200
   50DOPC  H15S 6843   5.211   6.877   4.582 -0.0960 -0.0497 -1.1753
   50DOPC  C216 6844   5.378   7.002   4.518 -0.1442 -0.0089  0.1927
   50DOPC  H16R 6845   5.443   6.918   4.486  0.6674  1.6092 -2.7431
   50DOPC  H16S 6846   5.444   7.070   4.575 -1.3048 -0.9583  2.8028
   50DOPC  C217 6847   5.326   7.092   4.398 -0.0218  1.0625 -0.0933
   50DOPC  H17R 6848   5.276   7.179   4.444 -1.0105  0.8915 -0.8019
   50DOPC  H17S 6849   5.253   7.028   4.342  1.9856 -0.8965 -0.6218
   50DOPC  C218 6850   5.444   7.143   4.320  0.2094 -0.2781 -0.2928
   50DOPC  H18R 6851   5.417   7.233   4.260  1.0601 -0.0697 -0.3802
   50DOPC  H18S 6852   5.497   7.059   4.271 -2.0876 -1.9928 -0.0086
   50DOPC  H18T 6853   5.520   7.188   4.388 -0.3592 -0.7331  0.6697
   50DOPC   C33 6854   4.736   7.337   5.460  0.3415  0.6524  0.0127
   50DOPC   H3X 6855   4.759   7.256   5.532 -1.0778 -0.1878 -0.4248
   50DOPC   H3Y 6856   4.822   7.405   5.441  0.3094  0.6081 -0.3073
   50DOPC   C34 6857   4.710   7.254   5.324  0.0346 -0.3432  1.2781
   50DOPC   H4X 6858   4.697   7.323   5.239  0.1648 -2.0588 -0.1944
   50DOPC   H4Y 6859   4.617   7.195   5.342 -1.8439  2.4054  1.1588
   50DOPC   C35 6860   4.840   7.167   5.295 -0.3060 -0.3557  0.0258
   50DOPC   H5X 6861   4.835   7.087   5.372  0.2994 -0.9627 -0.5487
   50DOPC   H5Y 6862   4.926   7.235   5.311  1.3327 -2.3614  0.1560
   50DOPC   C36 6863   4.850   7.116   5.155  0.7537 -0.5810  0.2525
   50DOPC   H6X 6864   4.842   7.201   5.083  0.7376 -2.4149 -2.0476
   50DOPC   H6Y 6865   4.954   7.079   5.140  0.7462 -0.0637 -1.2353
   50DOPC   C37 6866   4.748   7.006   5.122 -0.6393  0.1293  0.3354
   50DOPC   H7X 6867   4.687   6.978   5.210 -1.2793 -0.1961 -0.2049
   50DOPC   H7Y 6868   4.677   7.039   5.044 -2.6018  0.1103  2.0437
   50DOPC   C38 6869   4.818   6.875   5.075  0.7456  0.4581 -0.1748
   50DOPC   H8X 6870   4.730   6.811   5.051  0.4032  0.8946 -0.1050
   50DOPC   H8Y 6871   4.866   6.824   5.161  0.9470  0.5794 -0.2141
   50DOPC   C39 6872   4.899   6.888   4.948 -0.3834  0.1048 -0.0452
   50DOPC   H9X 6873   5.001   6.925   4.964 -1.3473  3.7952 -1.5528
   50DOPC  C310 6874   4.849   6.865   4.821 -0.4766 -0.6194  0.5270
   50DOPC  H10X 6875   4.913   6.875   4.732 -0.7356  0.7449  0.4840
   50DOPC  C311 6876   4.701   6.834   4.788 -0.4510  0.7191  0.4637
   50DOPC  H11X 6877   4.630   6.836   4.873 -1.3638 -4.1596  0.1310
   50DOPC  H11Y 6878   4.694   6.728   4.755 -0.6777  0.9735 -0.3313
   50DOPC  C312 6879   4.649   6.912   4.663 -0.3677 -0.7700  0.0084
   50DOPC  H12X 6880   4.554   6.866   4.627 -0.3227 -0.1409 -0.9534
   50DOPC  H12Y 6881   4.724   6.905   4.581 -0.8162  0.8091 -0.5617
   50DOPC  C313 6882   4.631   7.062   4.684  0.7681 -0.2879 -0.0406
   50DOPC  H13X 6883   4.539   7.073   4.745  1.0271  1.5351  0.0781
   50DOPC  H13Y 6884   4.718   7.096   4.745  0.0053  1.0822  0.3190
   50DOPC  C314 6885   4.627   7.143   4.557 -0.1413 -0.2288  0.2725
   50DOPC  H14X 6886   4.626   7.252   4.580 -2.7766  0.3515 -2.0864
   50DOPC  H14Y 6887   4.719   7.118   4.500 -1.2572 -5.1407  0.1770
   50DOPC  C315 6888   4.518   7.117   4.453 -0.1346 -0.2864  0.2436
   50DOPC  H15X 6889   4.418   7.126   4.498  0.4632  0.1529  1.5264
   50DOPC  H15Y 6890   4.534   7.011   4.424  0.3951 -0.3817  0.8602
   50DOPC  C316 6891   4.533   7.210   4.327 -0.2888  0.3405  0.3505
   50DOPC  H16X 6892   4.447   7.277   4.306 -1.0395 -1.1544 -1.7260
   50DOPC  H16Y 6893   4.623   7.271   4.353  1.0159 -0.9534 -0.9216
   50DOPC  C317 6894   4.555   7.127   4.198  0.0281 -0.2596 -0.1241
   50DOPC  H17X 6895   4.654   7.076   4.203 -0.1382 -0.5462  0.2379
   50DOPC  H17Y 6896   4.468   7.064   4.171 -0.3672 -0.3836  1.4005
   50DOPC  C318 6897   4.564   7.224   4.072  0.1529  0.9097 -0.1482
   50DOPC  H18X 6898   4.465   7.272   4.053  0.8173  1.4265 -2.6449
   50DOPC  H18Y 6899   4.642   7.299   4.097 -1.6152  2.5806  0.6861
   50DOPC  H18Z 6900   4.598   7.169   3.981 -1.3608  0.8144 -0.6876
   51DOPC     N 6901   2.234   1.200   5.970  0.4903 -0.3459  0.4808
   51DOPC   C12 6902   2.240   1.097   6.078 -0.7581  0.1375 -0.1593
   51DOPC  H12A 6903   2.280   1.148   6.165  1.2948 -0.6980 -0.5551
   51DOPC  H12B 6904   2.316   1.026   6.051 -2.2342 -0.7747 -2.2107
   51DOPC   C13 6905   2.355   1.282   5.967  0.0570  0.3113  0.0756
   51DOPC  H13A 6906   2.370   1.335   5.874  0.1607 -0.2406 -0.2291
   51DOPC  H13B 6907   2.374   1.356   6.043 -0.0890  1.0162 -0.5617
   51DOPC  H13C 6908   2.437   1.214   5.984  2.1799  3.0683  1.8890
   51DOPC   C14 6909   2.123   1.298   5.992 -0.1031 -0.8822  1.3644
   51DOPC  H14A 6910   2.032   1.240   5.998  0.9171 -2.5039  1.8430
   51DOPC  H14B 6911   2.126   1.360   6.080 -1.2030 -0.7804  1.3440
   51DOPC  H14C 6912   2.100   1.366   5.911 -0.1760 -0.8185  1.4382
   51DOPC   C15 6913   2.212   1.124   5.842  0.3314 -0.7923  0.4457
   51DOPC  H15A 6914   2.290   1.055   5.811 -0.7141 -1.8406  0.0878
   51DOPC  H15B 6915   2.195   1.191   5.759  1.9915  1.0269  1.4708
   51DOPC  H15C 6916   2.128   1.057   5.850 -0.6811  0.4080  0.2574
   51DOPC   C11 6917   2.113   1.020   6.114  0.0823  0.5065  0.1934
   51DOPC  H11A 6918   2.126   0.957   6.205 -3.5887  0.7914  1.0814
   51DOPC  H11B 6919   2.031   1.093   6.132 -0.4617 -0.4114  1.6646
   51DOPC     P 6920   1.969   0.826   6.037  0.1369 -0.1917  0.0462
   51DOPC   O13 6921   1.877   0.797   5.923  0.2250 -0.6115  0.3883
   51DOPC   O14 6922   1.904   0.862   6.168 -0.2754  0.1768 -0.4657
   51DOPC   O12 6923   2.075   0.936   6.003 -0.0156  0.1156  0.3025
   51DOPC   O11 6924   2.060   0.702   6.066 -0.0398 -0.4116 -0.3505
   51DOPC    C1 6925   2.189   0.693   5.995  0.8848 -0.0413 -0.2103
   51DOPC    HA 6926   2.238   0.600   6.031  0.2786  0.0083  0.7899
   51DOPC    HB 6927   2.255   0.778   6.022 -0.5844  1.3969 -0.9385
   51DOPC    C2 6928   2.180   0.703   5.835 -0.1272  0.0154  0.1998
   51DOPC    HS 6929   2.139   0.801   5.802 -0.8241  0.7365  2.9428
   51DOPC   O21 6930   2.085   0.596   5.804 -0.2450 -0.0748  0.1455
   51DOPC   C21 6931   2.031   0.611   5.687 -0.1010  0.4642  0.1547
   51DOPC   O22 6932   2.029   0.712   5.622  0.1044 -0.2142  0.0206
   51DOPC   C22 6933   1.986   0.474   5.635  0.3536 -0.0928 -0.3543
   51DOPC   H2R 6934   1.897   0.451   5.698  1.6943  2.0192  2.5828
   51DOPC   H2S 6935   2.061   0.394   5.652  1.7201  1.6260  2.5192
   51DOPC    C3 6936   2.316   0.677   5.781 -0.5596  0.2192 -0.1225
   51DOPC    HX 6937   2.352   0.580   5.822  0.0901  0.0415 -1.0647
   51DOPC    HY 6938   2.380   0.752   5.832 -0.8076  1.1590 -1.1585
   51DOPC   O31 6939   2.327   0.687   5.636 -0.2129 -0.0384  0.5907
   51DOPC   C31 6940   2.347   0.804   5.568  0.5849  0.5241 -0.7287
   51DOPC   O32 6941   2.349   0.914   5.618 -0.0585 -0.5038  0.1847
   51DOPC   C32 6942   2.345   0.780   5.424  0.2500 -0.4679  0.0732
   51DOPC   H2X 6943   2.338   0.671   5.404  0.7481 -0.7181  1.1657
   51DOPC   H2Y 6944   2.252   0.829   5.389 -1.2862 -1.3646  2.5792
   51DOPC   C23 6945   1.941   0.470   5.484 -0.4953 -0.1800 -0.2382
   51DOPC   H3R 6946   2.025   0.510   5.423 -0.2343 -2.3014 -1.3413
   51DOPC   H3S 6947   1.848   0.524   5.455 -0.8449 -0.5842  0.1174
   51DOPC   C24 6948   1.916   0.321   5.439 -0.4074 -0.2417  0.4444
   51DOPC   H4R 6949   1.845   0.270   5.508  1.4218 -2.8290  0.5399
   51DOPC   H4S 6950   2.012   0.267   5.452 -0.0515  0.2572 -0.0408
   51DOPC   C25 6951   1.872   0.313   5.292  0.2759  0.5944 -0.4140
   51DOPC   H5R 6952   1.876   0.204   5.272 -0.5643  0.6733 -1.0408
   51DOPC   H5S 6953   1.953   0.360   5.233  1.7225 -0.5554  0.5604
   51DOPC   C26 6954   1.727   0.359   5.257 -1.2448 -0.2106  0.5157
   51DOPC   H6R 6955   1.715   0.463   5.294  2.2111  0.3890  0.2670
   51DOPC   H6S 6956   1.645   0.299   5.302 -1.4655 -1.1727 -1.0729
   51DOPC   C27 6957   1.700   0.361   5.105 -0.3951  0.5419  0.7614
   51DOPC   H7R 6958   1.592   0.383   5.095 -0.2195  0.6957 -1.1627
   51DOPC   H7S 6959   1.721   0.257   5.070 -0.2047  0.3036  1.5553
   51DOPC   C28 6960   1.784   0.454   5.013 -0.7508  0.4196  0.3386
   51DOPC   H8R 6961   1.765   0.419   4.909  0.1701  0.5209  0.1219
   51DOPC   H8S 6962   1.890   0.423   5.021 -0.9693 -0.0377  1.6140
   51DOPC   C29 6963   1.766   0.600   5.044  0.1731 -0.4988 -0.3343
   51DOPC   H9R 6964   1.800   0.639   5.142  0.0711  1.8374 -1.1501
   51DOPC  C210 6965   1.716   0.695   4.965 -0.5414  0.0046  0.5084
   51DOPC  H10R 6966   1.713   0.799   5.000 -2.0773  0.0449  0.3393
   51DOPC  C211 6967   1.652   0.675   4.826  0.1709  0.5705  0.2450
   51DOPC  H11R 6968   1.555   0.728   4.827 -0.2201 -0.1139 -0.3299
   51DOPC  H11S 6969   1.640   0.566   4.806  0.0967  0.7885 -0.9323
   51DOPC  C212 6970   1.735   0.724   4.706 -0.6782  0.0076 -0.0786
   51DOPC  H12R 6971   1.759   0.831   4.718 -1.4001  0.0709  0.9599
   51DOPC  H12S 6972   1.689   0.719   4.605 -0.7513 -1.7347  0.0021
   51DOPC  C213 6973   1.866   0.651   4.692  0.0673  0.5783  0.3409
   51DOPC  H13R 6974   1.845   0.551   4.648  2.9400 -0.1410  0.4036
   51DOPC  H13S 6975   1.911   0.625   4.790  1.0438 -1.0657 -0.4994
   51DOPC  C214 6976   1.977   0.709   4.600  0.6374 -0.8889  0.1241
   51DOPC  H14R 6977   2.074   0.667   4.634  1.7987  0.8667 -0.8229
   51DOPC  H14S 6978   1.973   0.820   4.615  0.0805 -0.7400 -1.0262
   51DOPC  C215 6979   1.957   0.670   4.454 -0.5201  0.0197  0.5808
   51DOPC  H15R 6980   1.856   0.713   4.433 -0.4066  0.6793  1.3258
   51DOPC  H15S 6981   1.949   0.559   4.456 -0.9538  0.0201 -0.6367
   51DOPC  C216 6982   2.054   0.734   4.353 -0.1774  0.4318 -0.1884
   51DOPC  H16R 6983   2.052   0.676   4.258 -1.2927 -0.2136  0.2145
   51DOPC  H16S 6984   2.159   0.727   4.389  0.5813  0.7389 -2.1746
   51DOPC  C217 6985   2.017   0.874   4.309 -0.0002 -0.2387 -1.2146
   51DOPC  H17R 6986   2.025   0.940   4.398  0.3999 -2.5196  0.5084
   51DOPC  H17S 6987   1.914   0.884   4.270  0.3643  1.1268 -1.9099
   51DOPC  C218 6988   2.119   0.927   4.207  0.2037  0.3021  0.0117
   51DOPC  H18R 6989   2.098   0.880   4.109 -0.4562 -1.4041  0.9247
   51DOPC  H18S 6990   2.227   0.908   4.222  0.5363  2.2174  0.2114
   51DOPC  H18T 6991   2.114   1.037   4.196 -1.0694  0.2033 -0.5267
   51DOPC   C33 6992   2.469   0.823   5.340  0.0985  0.0324  0.3689
   51DOPC   H3X 6993   2.488   0.756   5.253 -0.4547 -0.9646  1.0051
   51DOPC   H3Y 6994   2.560   0.819   5.403  0.0515  0.0348  0.4372
   51DOPC   C34 6995   2.436   0.959   5.277 -0.8863 -0.0797 -0.2190
   51DOPC   H4X 6996   2.416   1.036   5.355 -0.8418 -0.5252  0.2388
   51DOPC   H4Y 6997   2.347   0.958   5.211  0.1317  2.7146 -1.7986
   51DOPC   C35 6998   2.543   1.006   5.187 -0.3132  0.5559  0.6702
   51DOPC   H5X 6999   2.556   0.943   5.097 -0.0872  0.5518  0.7035
   51DOPC   H5Y 7000   2.638   1.004   5.245 -1.1978  0.9104  2.1882
   51DOPC   C36 7001   2.518   1.150   5.142  0.3874 -0.7721 -0.5902
   51DOPC   H6X 7002   2.426   1.160   5.080 -0.1330  2.2731  0.5321
   51DOPC   H6Y 7003   2.500   1.221   5.225  1.2882  0.3674 -1.3394
   51DOPC   C37 7004   2.637   1.193   5.063  0.4648  0.4213  0.7077
   51DOPC   H7X 7005   2.655   1.302   5.081 -0.7702  0.4080  2.2885
   51DOPC   H7Y 7006   2.729   1.138   5.090  0.4799  0.6213  1.0757
   51DOPC   C38 7007   2.632   1.160   4.910  0.1731  0.4051 -0.2733
   51DOPC   H8X 7008   2.526   1.159   4.875 -0.4699 -2.7014  1.4084
   51DOPC   H8Y 7009   2.655   1.052   4.896  0.9076  0.6678 -1.1425
   51DOPC   C39 7010   2.729   1.246   4.839 -0.3483 -0.1686  0.2562
   51DOPC   H9X 7011   2.716   1.353   4.859 -0.1541 -0.6650  3.7153
   51DOPC  C310 7012   2.833   1.216   4.762  0.2223 -0.4651 -0.2961
   51DOPC  H10X 7013   2.901   1.297   4.732  0.4508  0.3502  2.1271
   51DOPC  C311 7014   2.871   1.075   4.715 -0.1875  0.0092 -0.2268
   51DOPC  H11X 7015   2.781   1.018   4.684 -0.1056  0.3069 -1.0433
   51DOPC  H11Y 7016   2.934   1.018   4.787  0.2247 -2.2282 -2.2217
   51DOPC  C312 7017   2.957   1.075   4.576  0.3679 -0.0982 -0.5522
   51DOPC  H12X 7018   2.989   0.970   4.558 -1.2104 -0.9415  1.1584
   51DOPC  H12Y 7019   3.043   1.144   4.578  1.2441 -1.1645 -0.2065
   51DOPC  C313 7020   2.877   1.117   4.453  0.3985 -0.3010 -0.3442
   51DOPC  H13X 7021   2.788   1.053   4.436 -0.6613  0.2323  2.5855
   51DOPC  H13Y 7022   2.851   1.225   4.463 -2.5184 -0.9266 -0.1828
   51DOPC  C314 7023   2.956   1.082   4.327 -0.0496 -0.4769  0.1405
   51DOPC  H14X 7024   3.041   1.151   4.339  0.3293 -0.8509 -0.3638
   51DOPC  H14Y 7025   2.992   0.977   4.324 -3.0281 -1.7272  2.3678
   51DOPC  C315 7026   2.877   1.114   4.203  0.5026  0.0618 -0.0840
   51DOPC  H15X 7027   2.807   1.200   4.214  0.8588  0.7733 -2.6877
   51DOPC  H15Y 7028   2.802   1.034   4.185  0.8448 -0.4761  0.8398
   51DOPC  C316 7029   2.960   1.147   4.078 -0.5928  0.6942  0.4186
   51DOPC  H16X 7030   3.024   1.234   4.103  1.2899 -0.6255  0.3936
   51DOPC  H16Y 7031   3.033   1.067   4.053  0.1307  2.1125 -2.4844
   51DOPC  C317 7032   2.875   1.177   3.959  0.2721 -0.0755  0.1473
   51DOPC  H17X 7033   2.835   1.081   3.921 -1.1756  1.1158 -1.5092
   51DOPC  H17Y 7034   2.792   1.244   3.991 -0.1920  0.2341 -1.6230
   51DOPC  C318 7035   2.955   1.239   3.836 -0.4390 -0.1405 -0.2986
   51DOPC  H18X 7036   2.889   1.254   3.748 -1.3829 -3.3486 -0.2640
   51DOPC  H18Y 7037   3.014   1.330   3.860 -1.2601  0.2109  0.4496
   51DOPC  H18Z 7038   3.031   1.173   3.789  2.1884  4.1163 -2.6942
   52DOPC     N 7039   5.573   6.044   6.077 -0.6552  0.1488  0.4235
   52DOPC   C12 7040   5.485   6.100   5.962  0.1512  0.4648 -0.0682
   52DOPC  H12A 7041   5.384   6.062   5.963  0.6770 -1.0125 -0.1014
   52DOPC  H12B 7042   5.529   6.075   5.867 -1.7987 -1.5886 -0.5243
   52DOPC   C13 7043   5.508   6.029   6.211 -0.7584 -0.4318 -0.0185
   52DOPC  H13A 7044   5.474   6.123   6.251  1.5999  0.5028 -0.0504
   52DOPC  H13B 7045   5.424   5.961   6.200 -1.3195  0.3947 -1.1243
   52DOPC  H13C 7046   5.562   5.987   6.294  0.8080  2.4559  0.5572
   52DOPC   C14 7047   5.701   6.121   6.084 -0.2934 -0.4351 -0.2821
   52DOPC  H14A 7048   5.754   6.119   5.990  0.1193 -0.0784 -0.0636
   52DOPC  H14B 7049   5.683   6.225   6.108  0.1151 -0.0665 -1.4933
   52DOPC  H14C 7050   5.767   6.091   6.163 -0.2551  2.0081  0.7158
   52DOPC   C15 7051   5.612   5.901   6.049  0.2592  0.7555  0.1615
   52DOPC  H15A 7052   5.665   5.881   5.957  1.4466 -1.0006  1.1765
   52DOPC  H15B 7053   5.523   5.840   6.036  1.6851 -0.8153 -4.0386
   52DOPC  H15C 7054   5.676   5.859   6.125  1.6433  2.9917  0.3332
   52DOPC   C11 7055   5.478   6.259   5.950  0.2726 -0.3026  0.0410
   52DOPC  H11A 7056   5.575   6.304   5.923  1.1543 -1.8006  0.6088
   52DOPC  H11B 7057   5.406   6.278   5.868 -0.2463  2.9263  1.1074
   52DOPC     P 7058   5.271   6.353   6.084  0.2998  0.5908 -0.3350
   52DOPC   O13 7059   5.254   6.436   6.204  0.2775  0.3753 -0.8417
   52DOPC   O14 7060   5.193   6.226   6.084 -0.5090 -0.5410 -0.0116
   52DOPC   O12 7061   5.426   6.328   6.066 -0.5009  0.3348 -0.3014
   52DOPC   O11 7062   5.232   6.441   5.962 -0.3238  0.0584  0.3528
   52DOPC    C1 7063   5.296   6.563   5.924 -0.6904  0.7178  0.0569
   52DOPC    HA 7064   5.377   6.585   5.998 -0.0419 -2.4374  0.4284
   52DOPC    HB 7065   5.216   6.639   5.929 -2.3097 -0.8004 -1.6729
   52DOPC    C2 7066   5.364   6.549   5.782 -1.0523 -0.4391  0.3380
   52DOPC    HS 7067   5.454   6.486   5.794  0.9161  2.1407 -0.0328
   52DOPC   O21 7068   5.401   6.685   5.736 -0.0973 -0.1737 -0.2526
   52DOPC   C21 7069   5.518   6.730   5.790 -0.0116  0.0924  0.2880
   52DOPC   O22 7070   5.595   6.666   5.860  0.0614 -0.1198 -0.3817
   52DOPC   C22 7071   5.530   6.885   5.758 -0.5366 -0.1211 -0.3155
   52DOPC   H2R 7072   5.508   6.934   5.855 -1.3128 -3.0526  1.1070
   52DOPC   H2S 7073   5.452   6.909   5.682 -1.6703  1.5182  1.2748
   52DOPC    C3 7074   5.280   6.491   5.675 -0.3066  0.1304  0.2533
   52DOPC    HX 7075   5.188   6.554   5.665 -1.1859 -1.3000 -1.0951
   52DOPC    HY 7076   5.237   6.395   5.712 -1.0042  0.1513 -0.4663
   52DOPC   O31 7077   5.351   6.485   5.550 -0.0041  0.1962  0.2100
   52DOPC   C31 7078   5.426   6.371   5.536 -0.2969 -0.6745 -0.4326
   52DOPC   O32 7079   5.435   6.280   5.616 -0.2153 -0.2396  0.1767
   52DOPC   C32 7080   5.510   6.383   5.411 -0.4993  0.7042  0.6274
   52DOPC   H2X 7081   5.449   6.402   5.320  0.9945 -0.9332 -0.7664
   52DOPC   H2Y 7082   5.577   6.471   5.426  1.1452 -0.6458  1.5056
   52DOPC   C23 7083   5.671   6.914   5.702 -0.4406  0.2266 -0.1499
   52DOPC   H3R 7084   5.693   6.862   5.607 -1.1348 -1.7696  0.7383
   52DOPC   H3S 7085   5.744   6.885   5.780 -0.9617  0.9492  0.6301
   52DOPC   C24 7086   5.685   7.070   5.665  0.2319 -0.3403 -0.0271
   52DOPC   H4R 7087   5.787   7.092   5.627  1.0180 -3.1371  0.2730
   52DOPC   H4S 7088   5.660   7.134   5.753  2.2547  1.3559 -0.5987
   52DOPC   C25 7089   5.581   7.119   5.566  0.3998 -0.0718 -0.5505
   52DOPC   H5R 7090   5.566   7.229   5.569 -2.2643 -0.3865  0.3287
   52DOPC   H5S 7091   5.477   7.087   5.590  0.2838  0.5761 -0.1547
   52DOPC   C26 7092   5.610   7.073   5.422 -0.4582  0.3494  0.3088
   52DOPC   H6R 7093   5.612   6.963   5.410 -0.9171  0.3476  0.2328
   52DOPC   H6S 7094   5.711   7.113   5.397 -0.4305  1.0973  1.5102
   52DOPC   C27 7095   5.504   7.119   5.324 -0.2544 -0.3383 -0.6056
   52DOPC   H7R 7096   5.529   7.223   5.295  0.7608 -0.0935  0.9872
   52DOPC   H7S 7097   5.408   7.122   5.380  0.2675 -1.2423  0.3786
   52DOPC   C28 7098   5.487   7.022   5.205 -0.2128 -0.3632  0.7963
   52DOPC   H8R 7099   5.407   7.072   5.146  0.5465  1.5151  1.2854
   52DOPC   H8S 7100   5.451   6.924   5.244 -0.2832 -0.8136 -0.3752
   52DOPC   C29 7101   5.613   7.008   5.121  0.1129 -0.0269  1.0199
   52DOPC   H9R 7102   5.653   7.105   5.088  1.4813 -1.4370 -1.8620
   52DOPC  C210 7103   5.680   6.896   5.080  0.1785 -0.1974 -0.5319
   52DOPC  H10R 7104   5.772   6.906   5.019 -0.6762 -0.7308 -1.9607
   52DOPC  C211 7105   5.661   6.759   5.133 -0.2512  0.8544  0.1180
   52DOPC  H11R 7106   5.624   6.706   5.043  0.5823 -0.0045  0.2661
   52DOPC  H11S 7107   5.577   6.751   5.206  0.0260 -2.2518  0.2431
   52DOPC  C212 7108   5.797   6.699   5.188 -0.4043  0.6727 -0.2396
   52DOPC  H12R 7109   5.881   6.721   5.119 -0.5805  0.8752 -0.3899
   52DOPC  H12S 7110   5.790   6.590   5.206 -0.9425  0.6280 -0.6827
   52DOPC  C213 7111   5.820   6.747   5.332 -0.4555  0.6041 -0.6239
   52DOPC  H13R 7112   5.744   6.707   5.403 -0.4825  1.2752 -0.2684
   52DOPC  H13S 7113   5.823   6.858   5.335  2.7340  0.5769  0.9387
   52DOPC  C214 7114   5.952   6.701   5.392 -0.6021  0.3186 -0.5733
   52DOPC  H14R 7115   5.965   6.591   5.400 -0.1484  0.4269  0.2955
   52DOPC  H14S 7116   5.967   6.745   5.493 -0.5413 -2.4044  0.6892
   52DOPC  C215 7117   6.066   6.736   5.304 -0.2371 -0.4874  0.0112
   52DOPC  H15R 7118   6.051   6.842   5.274 -0.8630 -0.3029  0.9324
   52DOPC  H15S 7119   6.062   6.666   5.218 -2.2868 -2.4113  1.5522
   52DOPC  C216 7120   6.196   6.718   5.387 -0.1440 -0.3730  0.6813
   52DOPC  H16R 7121   6.192   6.615   5.428  1.0719 -1.0284 -0.7735
   52DOPC  H16S 7122   6.198   6.790   5.472 -1.3401  1.3569 -0.6651
   52DOPC  C217 7123   6.320   6.738   5.296  0.3735 -0.0791 -0.3322
   52DOPC  H17R 7124   6.320   6.839   5.251  0.5163 -0.0923 -0.3619
   52DOPC  H17S 7125   6.319   6.655   5.222 -1.6691 -0.3358 -0.0663
   52DOPC  C218 7126   6.445   6.714   5.379 -0.1576 -0.0731  0.4171
   52DOPC  H18R 7127   6.530   6.702   5.308  0.0718 -1.8147  0.9374
   52DOPC  H18S 7128   6.433   6.619   5.436  0.0978  0.1366  0.8229
   52DOPC  H18T 7129   6.468   6.793   5.454  1.8935 -1.9502  1.8963
   52DOPC   C33 7130   5.594   6.254   5.395  0.3194 -0.1173  0.3035
   52DOPC   H3X 7131   5.525   6.170   5.373 -1.4045  1.5509 -1.0038
   52DOPC   H3Y 7132   5.641   6.212   5.487 -0.2686 -3.0938 -0.6451
   52DOPC   C34 7133   5.703   6.270   5.298  0.2730  0.0125  0.1085
   52DOPC   H4X 7134   5.770   6.181   5.294  1.8126  1.0207  1.9235
   52DOPC   H4Y 7135   5.767   6.351   5.339 -1.4122  0.6939  1.5217
   52DOPC   C35 7136   5.663   6.328   5.159  0.2449 -0.4431 -0.4870
   52DOPC   H5X 7137   5.748   6.358   5.094 -0.8797  0.9395 -1.3813
   52DOPC   H5Y 7138   5.593   6.413   5.170  1.7940  0.5250  3.3674
   52DOPC   C36 7139   5.613   6.211   5.066  0.4356 -0.1639 -0.3474
   52DOPC   H6X 7140   5.701   6.149   5.038  1.2900  0.4926  0.7923
   52DOPC   H6Y 7141   5.530   6.156   5.114  0.3227 -0.0525 -0.4133
   52DOPC   C37 7142   5.552   6.254   4.928  0.3498  0.2670  0.4894
   52DOPC   H7X 7143   5.618   6.334   4.888  0.7011  0.0407  0.6132
   52DOPC   H7Y 7144   5.526   6.168   4.864 -1.7077  1.5173 -0.4505
   52DOPC   C38 7145   5.416   6.323   4.958  0.0306 -0.3133 -0.2414
   52DOPC   H8X 7146   5.433   6.409   5.025 -1.9601  0.3085 -0.4581
   52DOPC   H8Y 7147   5.354   6.253   5.019 -1.4882  0.3771 -0.9272
   52DOPC   C39 7148   5.336   6.361   4.837 -0.5161  0.5045  0.0920
   52DOPC   H9X 7149   5.389   6.414   4.757 -2.0766  0.0636 -1.2817
   52DOPC  C310 7150   5.213   6.336   4.822 -0.0008 -0.1370 -0.1892
   52DOPC  H10X 7151   5.169   6.347   4.721  0.4826 -2.9793 -0.7931
   52DOPC  C311 7152   5.113   6.273   4.922  0.2783 -0.4106 -0.3732
   52DOPC  H11X 7153   5.036   6.351   4.944  0.7131  0.9610 -3.2757
   52DOPC  H11Y 7154   5.165   6.231   5.010  1.6722  1.2919 -0.3287
   52DOPC  C312 7155   5.035   6.156   4.868  1.0678 -0.8328  0.3271
   52DOPC  H12X 7156   5.100   6.066   4.877  1.1489 -0.6811  1.2959
   52DOPC  H12Y 7157   5.010   6.178   4.762  0.6925 -1.3999  0.2946
   52DOPC  C313 7158   4.895   6.129   4.941  0.2836 -0.1107  0.3259
   52DOPC  H13X 7159   4.934   6.096   5.040  3.3983  0.5489 -0.5483
   52DOPC  H13Y 7160   4.834   6.221   4.945  0.8482  0.2294  1.6105
   52DOPC  C314 7161   4.819   6.002   4.893 -0.0807  0.5362  0.9233
   52DOPC  H14X 7162   4.749   6.020   4.809 -0.7772 -0.6940  1.2145
   52DOPC  H14Y 7163   4.892   5.931   4.850 -0.1536 -0.2086  1.9775
   52DOPC  C315 7164   4.731   5.939   5.003  0.3553  0.3898  0.5495
   52DOPC  H15X 7165   4.665   6.021   5.039 -1.5624 -0.2986 -1.2335
   52DOPC  H15Y 7166   4.805   5.924   5.085  2.1138  1.4710 -0.7768
   52DOPC  C316 7167   4.665   5.812   4.963 -0.0359  0.3779  0.1815
   52DOPC  H16X 7168   4.618   5.823   4.863 -0.3566  1.0254  0.4011
   52DOPC  H16Y 7169   4.739   5.730   4.947  1.4895  1.9843 -1.3410
   52DOPC  C317 7170   4.563   5.762   5.065  0.3928  0.6618  0.5128
   52DOPC  H17X 7171   4.497   5.845   5.099 -0.2974  1.0018 -1.4819
   52DOPC  H17Y 7172   4.485   5.699   5.018  1.2351  0.3626 -0.5236
   52DOPC  C318 7173   4.632   5.700   5.182  0.1022  0.4204 -0.1096
   52DOPC  H18X 7174   4.685   5.608   5.152  0.5720  0.9620 -0.9864
   52DOPC  H18Y 7175   4.702   5.769   5.235 -0.5416 -0.1011  1.4920
   52DOPC  H18Z 7176   4.555   5.659   5.251  0.8393 -1.2374 -0.2251
   53DOPC     N 7177   5.039   5.427   6.070  0.1932  0.0284  0.0692
   53DOPC   C12 7178   5.078   5.341   5.956 -0.8055 -0.3564  0.2707
   53DOPC  H12A 7179   5.179   5.362   5.926 -1.5649  1.5515 -1.1653
   53DOPC  H12B 7180   5.022   5.363   5.866 -1.3202  1.1412  0.9239
   53DOPC   C13 7181   5.143   5.413   6.178  0.1401 -0.5927  0.0275
   53DOPC  H13A 7182   5.239   5.444   6.140  0.9899 -0.0906  2.3757
   53DOPC  H13B 7183   5.117   5.469   6.267 -2.4826 -1.6511  0.0333
   53DOPC  H13C 7184   5.158   5.311   6.208 -1.4469 -0.3355  1.9327
   53DOPC   C14 7185   4.909   5.376   6.123  0.0059 -0.2501  0.3948
   53DOPC  H14A 7186   4.881   5.414   6.221 -3.0307  0.4368 -0.6314
   53DOPC  H14B 7187   4.833   5.405   6.053  1.2352  0.2733 -0.7591
   53DOPC  H14C 7188   4.906   5.268   6.126 -1.0211 -0.2258  2.3832
   53DOPC   C15 7189   5.021   5.571   6.033  0.1795  0.5153 -0.7172
   53DOPC  H15A 7190   4.978   5.626   6.116  2.3287  1.1138  0.0776
   53DOPC  H15B 7191   4.941   5.572   5.961 -1.5664 -3.1011  0.9072
   53DOPC  H15C 7192   5.116   5.617   6.012  0.4286  0.5740  0.4409
   53DOPC   C11 7193   5.061   5.178   5.967  0.1398  0.0497  0.0534
   53DOPC  H11A 7194   4.953   5.166   5.944 -0.5095  1.3019  2.2281
   53DOPC  H11B 7195   5.115   5.133   5.880  0.0739 -0.8656  0.4697
   53DOPC     P 7196   5.027   5.030   6.179  0.5008  0.1319 -0.2538
   53DOPC   O13 7197   5.068   5.038   6.326 -0.4370 -0.3053  0.1849
   53DOPC   O14 7198   5.042   4.896   6.114 -0.0732  0.0840 -0.6046
   53DOPC   O12 7199   5.111   5.132   6.092 -0.1551  0.0130  0.2004
   53DOPC   O11 7200   4.880   5.080   6.162 -0.4509 -0.0941  0.2286
   53DOPC    C1 7201   4.764   4.993   6.169  0.4030 -0.5511  0.1950
   53DOPC    HA 7202   4.708   5.024   6.260 -0.7842 -1.5518 -0.1798
   53DOPC    HB 7203   4.787   4.886   6.189  2.2546 -0.0102  1.2260
   53DOPC    C2 7204   4.685   4.994   6.033 -0.7544  1.1061  0.2467
   53DOPC    HS 7205   4.601   4.921   6.033  1.8497 -2.1424  0.4679
   53DOPC   O21 7206   4.774   4.956   5.933 -0.5536  0.2437  0.2658
   53DOPC   C21 7207   4.813   4.828   5.932  0.2420  0.2853 -0.0869
   53DOPC   O22 7208   4.777   4.742   6.012  0.3564 -0.2202  0.0334
   53DOPC   C22 7209   4.919   4.802   5.827  0.8018  0.1824  0.0874
   53DOPC   H2R 7210   5.019   4.796   5.876 -0.2496 -1.2198  2.1717
   53DOPC   H2S 7211   4.927   4.885   5.753  3.2592 -0.7545 -0.7920
   53DOPC    C3 7212   4.625   5.138   5.995  0.3852 -0.3260  0.1069
   53DOPC    HX 7213   4.705   5.215   5.996 -1.5409  1.8242 -1.1864
   53DOPC    HY 7214   4.554   5.175   6.072 -1.5159 -0.2333 -1.6168
   53DOPC   O31 7215   4.569   5.146   5.858 -0.1607  0.4166 -0.4715
   53DOPC   C31 7216   4.657   5.174   5.771 -0.2049  0.0359  0.8175
   53DOPC   O32 7217   4.772   5.214   5.783 -0.5133  0.0893 -0.1315
   53DOPC   C32 7218   4.592   5.159   5.636  0.4806  0.1793 -0.3702
   53DOPC   H2X 7219   4.594   5.262   5.596  0.4124  1.3835  2.4731
   53DOPC   H2Y 7220   4.660   5.102   5.568 -0.2531 -0.5045 -0.5435
   53DOPC   C23 7221   4.878   4.667   5.761 -0.6932 -0.2600 -0.3180
   53DOPC   H3R 7222   4.854   4.581   5.827  0.3455 -0.2883  0.0301
   53DOPC   H3S 7223   4.969   4.650   5.700 -0.4255  2.4115 -0.8012
   53DOPC   C24 7224   4.764   4.671   5.661  0.2967  0.1176 -0.5027
   53DOPC   H4R 7225   4.676   4.724   5.702  0.6834  0.2134  0.2011
   53DOPC   H4S 7226   4.738   4.565   5.638 -1.0914  0.0164  1.3459
   53DOPC   C25 7227   4.802   4.737   5.525 -0.2276  0.3709  1.1155
   53DOPC   H5R 7228   4.890   4.682   5.485 -1.1694  0.3979 -1.1186
   53DOPC   H5S 7229   4.833   4.840   5.550  3.1316 -1.0934  3.8827
   53DOPC   C26 7230   4.690   4.720   5.415 -0.2528  0.2953 -0.0895
   53DOPC   H6R 7231   4.605   4.785   5.446 -0.3294  0.7991 -1.3247
   53DOPC   H6S 7232   4.663   4.612   5.418  2.2740 -0.5298 -2.9503
   53DOPC   C27 7233   4.745   4.754   5.276  0.4353  0.3571  0.7338
   53DOPC   H7R 7234   4.847   4.713   5.262 -0.1168 -1.6001  2.0215
   53DOPC   H7S 7235   4.761   4.864   5.281  1.2346  0.3024 -0.3533
   53DOPC   C28 7236   4.649   4.723   5.161  0.5361  0.3846  0.8554
   53DOPC   H8R 7237   4.546   4.756   5.188 -0.2035 -0.5737 -0.7011
   53DOPC   H8S 7238   4.646   4.613   5.146 -2.1453  0.5914 -0.5752
   53DOPC   C29 7239   4.702   4.789   5.033 -0.2873 -0.4787 -0.5391
   53DOPC   H9R 7240   4.720   4.897   5.046  0.9247 -0.7373  0.0834
   53DOPC  C210 7241   4.765   4.733   4.925  0.9337 -0.0058 -1.0095
   53DOPC  H10R 7242   4.811   4.797   4.849 -0.8885  1.6746 -0.7643
   53DOPC  C211 7243   4.771   4.590   4.885 -0.5133  0.4127  0.7033
   53DOPC  H11R 7244   4.735   4.518   4.961  0.0286 -1.7195 -0.9358
   53DOPC  H11S 7245   4.880   4.569   4.887 -0.6711 -0.4124  1.7229
   53DOPC  C212 7246   4.706   4.554   4.749  0.2366  0.2979 -0.4398
   53DOPC  H12R 7247   4.597   4.576   4.746 -0.2110 -1.7711 -2.6228
   53DOPC  H12S 7248   4.701   4.446   4.723 -0.9825  0.0712  0.6224
   53DOPC  C213 7249   4.768   4.636   4.637 -0.6290 -0.1329 -0.6042
   53DOPC  H13R 7250   4.876   4.612   4.644 -0.3558  1.4977  2.3004
   53DOPC  H13S 7251   4.742   4.744   4.646 -0.5720 -0.0897 -0.9582
   53DOPC  C214 7252   4.704   4.602   4.498  0.2782  0.2455  0.0771
   53DOPC  H14R 7253   4.665   4.499   4.506 -0.0747  0.5208  3.1842
   53DOPC  H14S 7254   4.774   4.617   4.413  1.0258  1.1546  0.8275
   53DOPC  C215 7255   4.582   4.698   4.471 -0.3056  0.1740  0.2160
   53DOPC  H15R 7256   4.611   4.805   4.466 -1.8164  0.5687 -1.2704
   53DOPC  H15S 7257   4.517   4.678   4.559 -1.8825  0.1152 -0.9086
   53DOPC  C216 7258   4.495   4.646   4.354 -0.0720 -0.5369  0.3846
   53DOPC  H16R 7259   4.459   4.542   4.365 -0.8666 -0.2024  0.9933
   53DOPC  H16S 7260   4.555   4.648   4.260 -0.1590  0.0344  0.3363
   53DOPC  C217 7261   4.375   4.739   4.329 -0.6610 -0.1739 -0.2726
   53DOPC  H17R 7262   4.397   4.841   4.291 -2.0152 -0.1583 -1.0898
   53DOPC  H17S 7263   4.313   4.762   4.418 -0.4238 -2.1590  0.4582
   53DOPC  C218 7264   4.277   4.688   4.221 -0.2533 -0.1576 -0.1053
   53DOPC  H18R 7265   4.218   4.611   4.274 -1.0005  0.7832  0.4407
   53DOPC  H18S 7266   4.345   4.649   4.141  2.3240  2.5180  0.5956
   53DOPC  H18T 7267   4.209   4.767   4.183  1.0980  0.4926 -1.2664
   53DOPC   C33 7268   4.458   5.088   5.633  1.0897  0.1588 -0.0530
   53DOPC   H3X 7269   4.384   5.162   5.670 -0.0830 -0.5443 -0.9098
   53DOPC   H3Y 7270   4.442   5.003   5.703 -2.7296  0.1907 -0.6495
   53DOPC   C34 7271   4.412   5.048   5.492 -0.4274 -0.2949 -0.3128
   53DOPC   H4X 7272   4.327   4.977   5.499 -2.5101  1.8262 -2.0310
   53DOPC   H4Y 7273   4.499   4.996   5.446 -1.6389 -2.2483 -0.5015
   53DOPC   C35 7274   4.383   5.177   5.421  0.0550  0.2878  0.2503
   53DOPC   H5X 7275   4.461   5.255   5.424  2.6333 -2.1065 -0.0742
   53DOPC   H5Y 7276   4.289   5.210   5.470 -0.1197 -1.0778  0.9000
   53DOPC   C36 7277   4.360   5.162   5.269 -0.1764  0.3391  0.2914
   53DOPC   H6X 7278   4.461   5.132   5.234 -0.0165  0.9453  0.2227
   53DOPC   H6Y 7279   4.301   5.072   5.239  0.6108 -0.0468 -0.1291
   53DOPC   C37 7280   4.291   5.288   5.210 -0.4848 -1.0478 -0.5204
   53DOPC   H7X 7281   4.197   5.297   5.268 -0.4780  1.1418 -0.7489
   53DOPC   H7Y 7282   4.354   5.377   5.232  1.9993 -2.8307  0.0034
   53DOPC   C38 7283   4.254   5.275   5.059  0.1847  0.6725 -0.3169
   53DOPC   H8X 7284   4.177   5.195   5.047  2.6670 -1.9987  0.3760
   53DOPC   H8Y 7285   4.339   5.239   4.998 -0.8312  1.0298 -2.0243
   53DOPC   C39 7286   4.199   5.399   5.000  0.4943 -0.0343 -0.0478
   53DOPC   H9X 7287   4.104   5.428   5.046  0.3570 -3.0699  1.8719
   53DOPC  C310 7288   4.250   5.464   4.897 -0.0900 -0.1281  0.1072
   53DOPC  H10X 7289   4.205   5.560   4.867 -1.0007 -0.5222  0.1947
   53DOPC  C311 7290   4.364   5.422   4.811 -0.4017  0.6043  0.3383
   53DOPC  H11X 7291   4.381   5.313   4.817  2.5101  0.9358 -0.5883
   53DOPC  H11Y 7292   4.452   5.473   4.854  0.9367  0.8983 -2.5206
   53DOPC  C312 7293   4.353   5.458   4.660 -0.1001  0.0027 -0.2306
   53DOPC  H12X 7294   4.320   5.564   4.649  1.1067  0.6931  2.1614
   53DOPC  H12Y 7295   4.283   5.389   4.608 -0.0465  0.3346 -0.7497
   53DOPC  C313 7296   4.487   5.440   4.595  0.5500 -0.2293  0.0867
   53DOPC  H13X 7297   4.563   5.503   4.647  0.3474 -0.1824  0.3230
   53DOPC  H13Y 7298   4.530   5.338   4.603  1.1548  0.1060  1.3755
   53DOPC  C314 7299   4.492   5.474   4.445 -0.8711 -0.1156 -0.0772
   53DOPC  H14X 7300   4.458   5.579   4.437 -3.2051 -0.8485 -0.4030
   53DOPC  H14Y 7301   4.599   5.459   4.419  1.7912  4.4582  5.8556
   53DOPC  C315 7302   4.406   5.388   4.353 -0.2498  0.2103 -0.1526
   53DOPC  H15X 7303   4.303   5.395   4.394 -0.3877  0.5660 -0.5545
   53DOPC  H15Y 7304   4.441   5.282   4.360  0.3688  0.3653 -0.8161
   53DOPC  C316 7305   4.397   5.439   4.211  0.3550 -0.3397 -0.1525
   53DOPC  H16X 7306   4.367   5.546   4.216 -2.4354 -0.9247 -1.8013
   53DOPC  H16Y 7307   4.493   5.431   4.157  0.3130  0.5152 -0.3642
   53DOPC  C317 7308   4.283   5.372   4.127 -0.7441 -0.4517  0.4818
   53DOPC  H17X 7309   4.280   5.261   4.134 -0.9429 -0.7345 -2.6399
   53DOPC  H17Y 7310   4.185   5.399   4.173 -0.9322  0.2182 -0.2984
   53DOPC  C318 7311   4.278   5.417   3.974 -0.3688  0.2344  0.0690
   53DOPC  H18X 7312   4.291   5.525   3.954 -2.8200  0.4438 -0.6642
   53DOPC  H18Y 7313   4.361   5.361   3.926  1.4561  1.7962  1.2467
   53DOPC  H18Z 7314   4.184   5.383   3.926 -2.7389 -0.0437  4.3281
   54DOPC     N 7315  10.494   3.681   6.698  0.2497 -0.0694 -0.5393
   54DOPC   C12 7316  10.545   3.612   6.577 -0.0960  0.0087  0.0041
   54DOPC  H12A 7317  10.482   3.625   6.491 -0.1466  3.3265  0.4218
   54DOPC  H12B 7318  10.543   3.508   6.608 -1.3371  0.4514  1.4947
   54DOPC   C13 7319  10.354   3.634   6.712 -0.1628  0.0130 -0.2012
   54DOPC  H13A 7320  10.307   3.686   6.794 -0.9347  1.4847 -1.5269
   54DOPC  H13B 7321  10.308   3.663   6.618  0.4074  0.8331 -0.2411
   54DOPC  H13C 7322  10.348   3.529   6.734 -0.4883 -0.0119 -0.4021
   54DOPC   C14 7323  10.489   3.831   6.680 -1.7140 -0.3310 -0.1859
   54DOPC  H14A 7324  10.447   3.877   6.768  0.1445  2.2763 -0.5458
   54DOPC  H14B 7325  10.590   3.870   6.667 -0.3805 -3.5805 -0.4909
   54DOPC  H14C 7326  10.429   3.856   6.594 -1.7827 -1.6857 -0.5549
   54DOPC   C15 7327  10.571   3.646   6.829 -0.2149 -0.0052 -0.1309
   54DOPC  H15A 7328  10.512   3.683   6.911  0.5868 -0.4095  0.6375
   54DOPC  H15B 7329  10.670   3.687   6.835 -0.2669 -0.0973  1.8575
   54DOPC  H15C 7330  10.575   3.538   6.835  1.2809  0.0932  1.1259
   54DOPC   C11 7331  10.697   3.624   6.541  0.1663  0.2728 -0.0408
   54DOPC  H11A 7332  10.748   3.589   6.633 -1.7675  0.7231  1.2833
   54DOPC  H11B 7333  10.724   3.546   6.467 -2.8311 -0.7871 -0.1902
   54DOPC     P 7334  10.720   3.808   6.354 -0.2780  0.0254 -0.0225
   54DOPC   O13 7335  10.739   3.954   6.356  0.1125 -0.4080  0.3126
   54DOPC   O14 7336  10.591   3.760   6.298 -0.2515 -0.0052 -0.0781
   54DOPC   O12 7337  10.746   3.748   6.500  0.5218 -0.4661  0.6413
   54DOPC   O11 7338  10.835   3.741   6.264 -0.0402  0.0116 -0.0055
   54DOPC    C1 7339  10.824   3.619   6.183  0.1384  0.0609  0.4078
   54DOPC    HA 7340  10.738   3.554   6.209 -0.1297 -1.7361 -4.1950
   54DOPC    HB 7341  10.906   3.544   6.189  0.5368  0.3862 -0.7018
   54DOPC    C2 7342  10.816   3.656   6.028 -0.6381  0.0275 -1.1170
   54DOPC    HS 7343  10.712   3.691   6.012 -1.2363 -0.4237  1.3357
   54DOPC   O21 7344  10.858   3.544   5.945 -0.4499 -0.8818  0.0647
   54DOPC   C21 7345  10.757   3.455   5.918  0.5558 -0.7146 -0.3188
   54DOPC   O22 7346  10.637   3.470   5.945  0.5478 -0.1172 -1.0347
   54DOPC   C22 7347  10.820   3.339   5.841  0.1538  0.4732 -0.3230
   54DOPC   H2R 7348  10.904   3.291   5.896  0.6036 -1.6148 -2.6475
   54DOPC   H2S 7349  10.860   3.376   5.744 -0.9721 -1.0618 -1.4217
   54DOPC    C3 7350  10.915   3.780   6.003  0.1870 -0.5607 -0.4373
   54DOPC    HX 7351  11.019   3.746   6.022  0.1924  0.1039  0.8343
   54DOPC    HY 7352  10.889   3.856   6.079 -0.9063 -0.6831 -0.6765
   54DOPC   O31 7353  10.903   3.829   5.866 -0.1229 -0.0049  0.9067
   54DOPC   C31 7354  10.789   3.904   5.853  0.1841  0.1773 -0.6546
   54DOPC   O32 7355  10.711   3.936   5.940 -0.0771 -0.7023  0.0484
   54DOPC   C32 7356  10.764   3.933   5.709 -0.1791 -0.2619  0.3856
   54DOPC   H2X 7357  10.657   3.966   5.710 -0.8340 -2.1576 -1.1823
   54DOPC   H2Y 7358  10.810   4.028   5.674 -0.6706  0.3532  1.3724
   54DOPC   C23 7359  10.734   3.214   5.802  0.7317 -0.6064 -0.1298
   54DOPC   H3R 7360  10.644   3.217   5.867  0.8914  0.6227  0.0550
   54DOPC   H3S 7361  10.797   3.127   5.830  1.3419 -0.2513 -0.4030
   54DOPC   C24 7362  10.691   3.210   5.657  0.0013 -0.2780  0.3483
   54DOPC   H4R 7363  10.781   3.207   5.592  0.9323 -0.4968  1.6087
   54DOPC   H4S 7364  10.655   3.314   5.642  0.7536  0.4995  3.3638
   54DOPC   C25 7365  10.579   3.104   5.625  0.0469 -0.5833  0.4327
   54DOPC   H5R 7366  10.483   3.138   5.669 -0.5771 -2.9788  1.0814
   54DOPC   H5S 7367  10.615   3.013   5.678 -0.7301 -2.6159 -2.3002
   54DOPC   C26 7368  10.572   3.089   5.482  0.0741  0.4821 -0.5234
   54DOPC   H6R 7369  10.530   2.991   5.449  3.0834 -0.5327 -1.7136
   54DOPC   H6S 7370  10.676   3.082   5.443  0.0797  1.9430 -0.8338
   54DOPC   C27 7371  10.503   3.208   5.404 -0.4354  0.0541 -0.4954
   54DOPC   H7R 7372  10.564   3.301   5.408 -0.6951  0.2830 -1.6573
   54DOPC   H7S 7373  10.402   3.224   5.448  0.0370 -1.9087  1.5422
   54DOPC   C28 7374  10.486   3.191   5.253  0.7503  0.4623  0.5510
   54DOPC   H8R 7375  10.588   3.184   5.210  1.1935  0.1803  1.6292
   54DOPC   H8S 7376  10.434   3.281   5.213  0.4823 -0.8123 -2.2508
   54DOPC   C29 7377  10.403   3.084   5.194  0.4879 -0.1724 -0.0751
   54DOPC   H9R 7378  10.449   2.984   5.194 -1.1034 -0.9570 -0.8533
   54DOPC  C210 7379  10.278   3.099   5.148 -0.1723 -0.6866 -0.0692
   54DOPC  H10R 7380  10.225   3.004   5.127  0.9354 -1.7938  1.8942
   54DOPC  C211 7381  10.189   3.221   5.175  0.2308  0.7874 -0.0491
   54DOPC  H11R 7382  10.223   3.287   5.257 -1.5398 -0.3052  1.6408
   54DOPC  H11S 7383  10.094   3.183   5.219  0.7544  0.0398  0.4541
   54DOPC  C212 7384  10.145   3.301   5.054 -0.4308  0.5417  0.0219
   54DOPC  H12R 7385  10.148   3.251   4.954 -2.4324  1.5781 -0.6209
   54DOPC  H12S 7386  10.218   3.384   5.052  1.1841 -0.8214  0.5964
   54DOPC  C213 7387  10.013   3.379   5.068  0.9219  0.1666 -0.1985
   54DOPC  H13R 7388   9.935   3.300   5.075 -1.0744  1.9826 -1.0108
   54DOPC  H13S 7389   9.988   3.438   4.977  0.6516 -0.7524 -0.7324
   54DOPC  C214 7390  10.000   3.461   5.204  0.8799  0.3087 -0.1106
   54DOPC  H14R 7391  10.095   3.519   5.203  1.5402 -0.6923  1.3053
   54DOPC  H14S 7392   9.998   3.397   5.295  0.8302 -2.5290 -1.9661
   54DOPC  C215 7393   9.887   3.568   5.214 -0.3309  0.4249  0.3653
   54DOPC  H15R 7394   9.789   3.517   5.203  0.2312 -0.8618  1.0822
   54DOPC  H15S 7395   9.889   3.641   5.130 -1.4891  1.4493  1.2027
   54DOPC  C216 7396   9.885   3.647   5.347 -0.1449  0.0598 -0.3274
   54DOPC  H16R 7397   9.875   3.578   5.434 -1.1820 -0.7603 -1.0793
   54DOPC  H16S 7398   9.795   3.712   5.345 -1.2466 -1.4037  0.1620
   54DOPC  C217 7399  10.004   3.737   5.371 -0.1202  0.6500  0.4927
   54DOPC  H17R 7400  10.022   3.788   5.274  3.8920 -0.8563  0.2282
   54DOPC  H17S 7401  10.093   3.672   5.389  0.2554  1.4722  1.7689
   54DOPC  C218 7402   9.982   3.831   5.487 -0.1185  0.9773 -0.1360
   54DOPC  H18R 7403   9.896   3.898   5.467 -2.0687 -0.7808  1.9088
   54DOPC  H18S 7404  10.079   3.883   5.506 -0.9259  1.9404  1.5486
   54DOPC  H18T 7405   9.948   3.777   5.577 -0.2068  1.7872  0.3252
   54DOPC   C33 7406  10.787   3.809   5.616 -0.2269 -0.5452 -0.1845
   54DOPC   H3X 7407  10.744   3.719   5.664 -0.1950  0.1743  1.2589
   54DOPC   H3Y 7408  10.896   3.789   5.604 -0.2920 -0.4385 -1.0544
   54DOPC   C34 7409  10.734   3.822   5.474  0.2248  0.5147 -0.2634
   54DOPC   H4X 7410  10.776   3.742   5.408  2.5309  1.6901 -0.3241
   54DOPC   H4Y 7411  10.763   3.919   5.428  1.1124  0.3105 -0.1569
   54DOPC   C35 7412  10.585   3.804   5.469 -0.1650 -0.3332  0.6504
   54DOPC   H5X 7413  10.525   3.885   5.516 -0.6282  0.1227 -0.6620
   54DOPC   H5Y 7414  10.564   3.709   5.523 -1.3555 -0.6602 -0.3292
   54DOPC   C36 7415  10.517   3.764   5.335 -0.3962 -0.1615 -0.0334
   54DOPC   H6X 7416  10.565   3.818   5.251 -0.0781 -0.1350  0.1643
   54DOPC   H6Y 7417  10.541   3.656   5.326 -0.8549 -0.4201  1.5052
   54DOPC   C37 7418  10.369   3.791   5.315  0.1199 -0.0178 -0.3125
   54DOPC   H7X 7419  10.307   3.734   5.388 -1.1324  4.1471  2.2543
   54DOPC   H7Y 7420  10.344   3.898   5.332 -0.8752  0.3872 -3.6431
   54DOPC   C38 7421  10.335   3.757   5.168 -0.2819  0.9374 -0.4012
   54DOPC   H8X 7422  10.401   3.816   5.101  1.7383 -0.0341  0.6546
   54DOPC   H8Y 7423  10.228   3.783   5.153 -0.6505 -0.4383 -0.2442
   54DOPC   C39 7424  10.365   3.606   5.151 -0.1525 -0.6831 -1.4219
   54DOPC   H9X 7425  10.329   3.549   5.238  0.3518  0.2690 -0.5577
   54DOPC  C310 7426  10.430   3.561   5.047 -0.1394 -0.0604  0.4628
   54DOPC  H10X 7427  10.453   3.454   5.055  0.0845  0.0327  1.1261
   54DOPC  C311 7428  10.479   3.629   4.923 -0.1756 -0.1060  0.0553
   54DOPC  H11X 7429  10.554   3.708   4.943 -0.7208  0.3633  0.2953
   54DOPC  H11Y 7430  10.391   3.680   4.878 -1.7678 -2.8564 -0.1607
   54DOPC  C312 7431  10.535   3.549   4.806  0.0664  0.1172  0.7702
   54DOPC  H12X 7432  10.465   3.469   4.775 -2.3483  1.5823  2.1424
   54DOPC  H12Y 7433  10.627   3.497   4.840  0.8803  0.8487 -0.2432
   54DOPC  C313 7434  10.570   3.640   4.689  0.1439  0.6036 -0.2663
   54DOPC  H13X 7435  10.482   3.707   4.684 -1.3194 -1.2677 -0.9371
   54DOPC  H13Y 7436  10.662   3.699   4.706 -0.9363  2.0581  0.9121
   54DOPC  C314 7437  10.583   3.563   4.553  0.4808 -0.1218 -0.5046
   54DOPC  H14X 7438  10.512   3.479   4.538  0.0023 -0.5636  3.1493
   54DOPC  H14Y 7439  10.569   3.626   4.463  2.5294  1.9523  0.5149
   54DOPC  C315 7440  10.724   3.502   4.543  0.5187 -0.5929 -0.3218
   54DOPC  H15X 7441  10.732   3.415   4.612 -0.1244 -0.3257  0.1047
   54DOPC  H15Y 7442  10.789   3.585   4.576 -2.0157  1.5426 -0.3401
   54DOPC  C316 7443  10.756   3.466   4.400 -0.2865  0.0845 -0.9458
   54DOPC  H16X 7444  10.677   3.395   4.368  1.4414 -2.0190 -0.7867
   54DOPC  H16Y 7445  10.769   3.558   4.339  2.8758 -0.0095 -0.6043
   54DOPC  C317 7446  10.886   3.375   4.397 -0.2906  0.2132 -0.1269
   54DOPC  H17X 7447  10.978   3.424   4.435 -0.4055  1.9604 -1.9512
   54DOPC  H17Y 7448  10.858   3.292   4.465  1.5049 -1.0537 -0.8615
   54DOPC  C318 7449  10.915   3.309   4.261  0.5732 -0.2087 -0.2439
   54DOPC  H18X 7450  10.823   3.254   4.234  1.0944 -1.2571  0.0541
   54DOPC  H18Y 7451  10.932   3.384   4.181  1.2143  1.3066  1.2582
   54DOPC  H18Z 7452  10.989   3.227   4.272 -2.5166 -3.2830 -0.5465
   55DOPC     N 7453  10.473   7.079   5.954  0.5588  0.7030 -0.2005
   55DOPC   C12 7454  10.371   7.141   5.853  0.4085 -0.6855 -0.1966
   55DOPC  H12A 7455  10.273   7.133   5.898  1.4381 -0.6338  2.2320
   55DOPC  H12B 7456  10.358   7.077   5.767 -1.4879  1.2081 -1.4209
   55DOPC   C13 7457  10.443   6.922   5.977  0.0040 -0.4636  0.0315
   55DOPC  H13A 7458  10.350   6.907   6.029 -0.1354  0.4501  0.0610
   55DOPC  H13B 7459  10.445   6.881   5.877  0.3923 -1.1283  0.3106
   55DOPC  H13C 7460  10.528   6.880   6.028  0.6538 -0.2069 -0.8064
   55DOPC   C14 7461  10.453   7.141   6.088 -0.0296  0.1254 -0.5057
   55DOPC  H14A 7462  10.361   7.108   6.136  0.2503 -0.6951 -0.5225
   55DOPC  H14B 7463  10.531   7.120   6.160 -0.9745  0.3494  0.6264
   55DOPC  H14C 7464  10.452   7.249   6.084  0.8178  0.1414 -0.3166
   55DOPC   C15 7465  10.614   7.101   5.914 -0.2582  0.0745 -0.5693
   55DOPC  H15A 7466  10.630   7.202   5.878  1.5297 -0.7301 -2.1302
   55DOPC  H15B 7467  10.646   7.036   5.834  1.2851  0.9846 -0.7308
   55DOPC  H15C 7468  10.685   7.078   5.992 -1.4610  1.5847  1.0654
   55DOPC   C11 7469  10.381   7.285   5.801  0.1229  0.8264  0.3140
   55DOPC  H11A 7470  10.310   7.301   5.717  1.5322 -1.9964 -1.5810
   55DOPC  H11B 7471  10.342   7.348   5.884  1.2421  0.8064  0.8808
   55DOPC     P 7472  10.551   7.374   5.628  0.0895 -0.1194  0.0573
   55DOPC   O13 7473  10.692   7.343   5.596 -0.3875  0.7025 -0.7750
   55DOPC   O14 7474  10.518   7.521   5.615  0.1507  0.4889 -0.5870
   55DOPC   O12 7475  10.511   7.321   5.769  0.0646  0.0152 -0.2494
   55DOPC   O11 7476  10.465   7.293   5.520  0.6319  0.3279  1.0746
   55DOPC    C1 7477  10.462   7.159   5.481 -0.3039  0.6316 -0.3570
   55DOPC    HA 7478  10.381   7.140   5.408  1.2588 -0.4416 -1.9123
   55DOPC    HB 7479  10.442   7.101   5.573  0.1275  0.8656 -0.1140
   55DOPC    C2 7480  10.588   7.111   5.413 -0.4310 -0.4826  0.0259
   55DOPC    HS 7481  10.666   7.098   5.491 -1.1596 -0.1481  0.8159
   55DOPC   O21 7482  10.634   7.212   5.321 -0.0574 -0.3187  0.3964
   55DOPC   C21 7483  10.766   7.208   5.281  0.0633 -0.7032  0.4421
   55DOPC   O22 7484  10.856   7.153   5.343  0.0965 -0.3947 -0.4821
   55DOPC   C22 7485  10.780   7.288   5.153 -0.4314 -0.1528  0.4884
   55DOPC   H2R 7486  10.697   7.362   5.149 -0.2805  0.2231  2.8639
   55DOPC   H2S 7487  10.768   7.224   5.063  0.6533  1.6991 -1.0643
   55DOPC    C3 7488  10.568   6.974   5.342  0.3119 -0.2776 -0.3033
   55DOPC    HX 7489  10.515   6.907   5.413  1.0769  0.3869  0.9274
   55DOPC    HY 7490  10.666   6.923   5.329 -0.2687 -1.4714 -0.0591
   55DOPC   O31 7491  10.487   6.994   5.225 -0.0474 -0.3765 -0.6581
   55DOPC   C31 7492  10.554   6.985   5.113 -0.3370  0.2988  0.2771
   55DOPC   O32 7493  10.672   6.952   5.107  0.4687  0.1722  0.4563
   55DOPC   C32 7494  10.459   7.020   4.991  0.4491  0.0581 -0.3145
   55DOPC   H2X 7495  10.358   6.983   5.018  0.7988 -0.9871 -0.3961
   55DOPC   H2Y 7496  10.462   7.129   4.968 -0.0146 -0.1865 -1.6577
   55DOPC   C23 7497  10.924   7.353   5.144  0.5984  0.7795 -0.7029
   55DOPC   H3R 7498  11.001   7.273   5.153  1.3707  1.3702 -1.9210
   55DOPC   H3S 7499  10.946   7.422   5.229 -0.1511 -0.0607  0.2114
   55DOPC   C24 7500  10.926   7.445   5.024 -0.6961 -0.1645 -0.1691
   55DOPC   H4R 7501  10.894   7.549   5.049  1.6084  0.7612 -0.8429
   55DOPC   H4S 7502  10.850   7.407   4.952 -0.5126 -1.4607  0.3035
   55DOPC   C25 7503  11.062   7.440   4.967  0.2988  0.6373 -0.4430
   55DOPC   H5R 7504  11.095   7.334   4.960  0.3426  0.7690 -3.3206
   55DOPC   H5S 7505  11.139   7.480   5.038  0.7630 -0.6026 -0.2155
   55DOPC   C26 7506  11.085   7.510   4.832  0.2845 -0.0343 -0.5190
   55DOPC   H6R 7507  11.180   7.461   4.803  0.4602  0.2644 -0.4407
   55DOPC   H6S 7508  11.091   7.618   4.857  0.0038 -0.0471 -0.3878
   55DOPC   C27 7509  10.970   7.473   4.731 -0.1632  0.4726 -0.2375
   55DOPC   H7R 7510  10.872   7.516   4.761  0.1623 -1.2897  3.9125
   55DOPC   H7S 7511  10.962   7.364   4.716 -0.1822  0.4843 -0.3114
   55DOPC   C28 7512  10.993   7.518   4.579  0.0800  0.2319  0.5760
   55DOPC   H8R 7513  10.915   7.472   4.516 -0.9858  2.2948  0.2947
   55DOPC   H8S 7514  11.093   7.479   4.551  1.1006  2.1286  1.3982
   55DOPC   C29 7515  10.983   7.667   4.551 -0.2592 -0.3143  0.3440
   55DOPC   H9R 7516  10.879   7.696   4.530 -0.0188 -0.4434 -1.1275
   55DOPC  C210 7517  11.075   7.762   4.568 -0.6080  0.2340  0.3889
   55DOPC  H10R 7518  11.056   7.863   4.529  0.6876  0.0744 -0.7256
   55DOPC  C211 7519  11.213   7.757   4.620 -0.1580 -0.6273  0.3542
   55DOPC  H11R 7520  11.230   7.649   4.637 -1.5400 -0.7789  0.9711
   55DOPC  H11S 7521  11.227   7.802   4.721 -0.2213  1.3800 -0.4856
   55DOPC  C212 7522  11.323   7.810   4.535 -0.2884 -0.7987 -0.0068
   55DOPC  H12R 7523  11.413   7.814   4.599 -0.8388 -2.3866  0.9336
   55DOPC  H12S 7524  11.304   7.914   4.501  0.3552  0.0825  2.1919
   55DOPC  C213 7525  11.341   7.729   4.404  0.3713  0.3471 -0.4541
   55DOPC  H13R 7526  11.239   7.699   4.371  1.6319 -5.0095 -0.3239
   55DOPC  H13S 7527  11.389   7.632   4.428  1.1987  1.1156  1.1725
   55DOPC  C214 7528  11.416   7.793   4.286 -0.7151 -1.6909  0.5090
   55DOPC  H14R 7529  11.349   7.864   4.231  1.5596  0.4117  0.2985
   55DOPC  H14S 7530  11.445   7.705   4.224  1.6109 -1.6829  1.5026
   55DOPC  C215 7531  11.548   7.858   4.336 -0.3238  0.0754  0.0828
   55DOPC  H15R 7532  11.613   7.775   4.373 -3.0269 -1.5623  1.4370
   55DOPC  H15S 7533  11.524   7.935   4.412 -1.4181 -0.3607  0.1841
   55DOPC  C216 7534  11.605   7.946   4.225 -0.4195  0.0748  0.0938
   55DOPC  H16R 7535  11.534   8.029   4.208 -0.5055  0.0086  0.1233
   55DOPC  H16S 7536  11.615   7.896   4.126  0.1231  0.8544 -0.2513
   55DOPC  C217 7537  11.749   8.007   4.248  0.5813 -0.3345  0.0967
   55DOPC  H17R 7538  11.817   7.947   4.312 -0.8400 -0.1640  1.8188
   55DOPC  H17S 7539  11.733   8.103   4.303  0.5974 -0.0089 -0.4590
   55DOPC  C218 7540  11.814   8.041   4.115  0.1527 -0.5903 -0.2535
   55DOPC  H18R 7541  11.742   8.095   4.050 -0.2244 -0.7502  0.0251
   55DOPC  H18S 7542  11.849   7.945   4.070  0.9172  0.8244 -2.9093
   55DOPC  H18T 7543  11.901   8.109   4.128  0.5056 -1.2634  1.0104
   55DOPC   C33 7544  10.508   6.940   4.867 -0.0290  0.7928  0.2557
   55DOPC   H3X 7545  10.524   6.832   4.886 -0.9957  0.0749 -2.4886
   55DOPC   H3Y 7546  10.611   6.974   4.846  0.5975 -0.4901  1.1419
   55DOPC   C34 7547  10.427   6.957   4.736 -0.0950 -0.0672  0.1923
   55DOPC   H4X 7548  10.404   7.064   4.719  0.5519  0.4466  2.2153
   55DOPC   H4Y 7549  10.329   6.906   4.745  0.2968 -0.9255 -0.2854
   55DOPC   C35 7550  10.504   6.894   4.617 -0.1671 -0.4141  0.5419
   55DOPC   H5X 7551  10.530   6.790   4.645 -2.0649 -1.4508 -1.2539
   55DOPC   H5Y 7552  10.599   6.950   4.607 -0.5862  0.1059 -0.7576
   55DOPC   C36 7553  10.422   6.896   4.486 -0.5517  0.4411  0.2011
   55DOPC   H6X 7554  10.326   6.839   4.493  0.0849 -0.4864  1.9358
   55DOPC   H6Y 7555  10.389   7.001   4.475  3.1324  1.5834 -1.1516
   55DOPC   C37 7556  10.483   6.853   4.353  0.1419  0.7971 -0.7650
   55DOPC   H7X 7557  10.440   6.918   4.274 -0.8550  0.0018 -0.9058
   55DOPC   H7Y 7558  10.592   6.874   4.360  0.6468 -1.4370 -1.2473
   55DOPC   C38 7559  10.468   6.706   4.318 -0.4359  0.4732  0.1492
   55DOPC   H8X 7560  10.365   6.697   4.277  0.1315 -1.2257 -1.0070
   55DOPC   H8Y 7561  10.494   6.629   4.394  1.8460  1.9092  0.9245
   55DOPC   C39 7562  10.563   6.673   4.208 -0.1239 -0.3759 -0.1101
   55DOPC   H9X 7563  10.655   6.622   4.240 -0.7207 -1.0146  0.6294
   55DOPC  C310 7564  10.542   6.686   4.069 -0.5221  0.9445  0.0916
   55DOPC  H10X 7565  10.614   6.633   4.005 -0.5154 -1.1501  1.7188
   55DOPC  C311 7566  10.417   6.747   4.005  0.4723 -0.0312  0.0603
   55DOPC  H11X 7567  10.350   6.781   4.087 -0.4760 -1.8784  0.1170
   55DOPC  H11Y 7568  10.355   6.676   3.946 -1.1203  0.4659  1.0809
   55DOPC  C312 7569  10.464   6.862   3.922  0.1823 -0.1973 -0.5573
   55DOPC  H12X 7570  10.529   6.823   3.841 -0.9165  0.9671 -2.0741
   55DOPC  H12Y 7571  10.517   6.933   3.988 -2.9039  0.5721  1.3282
   55DOPC  C313 7572  10.350   6.932   3.844 -0.1077  0.0650 -0.1425
   55DOPC  H13X 7573  10.280   6.859   3.798  0.2374 -0.7662  0.6309
   55DOPC  H13Y 7574  10.294   6.997   3.915  0.2636 -0.6019  0.7752
   55DOPC  C314 7575  10.402   7.016   3.729  1.0771  0.0459  0.6153
   55DOPC  H14X 7576  10.506   6.978   3.718  1.4528  0.5747  2.1102
   55DOPC  H14Y 7577  10.351   6.982   3.636  2.0802 -2.3323  0.8717
   55DOPC  C315 7578  10.404   7.166   3.751  0.4431 -0.0818 -0.6226
   55DOPC  H15X 7579  10.303   7.194   3.789 -1.0819  1.4034 -5.0918
   55DOPC  H15Y 7580  10.430   7.226   3.662  2.6979  0.5292  0.3949
   55DOPC  C316 7581  10.506   7.212   3.860 -0.2066  0.4598  0.3827
   55DOPC  H16X 7582  10.469   7.176   3.959 -0.5456  3.4316  1.4624
   55DOPC  H16Y 7583  10.599   7.160   3.832 -1.2372 -1.8411  0.9970
   55DOPC  C317 7584  10.522   7.365   3.873  0.1483 -0.4539 -0.2989
   55DOPC  H17X 7585  10.611   7.390   3.936  0.0566  0.8308 -0.6420
   55DOPC  H17Y 7586  10.544   7.406   3.772  0.9562  2.3386  0.9037
   55DOPC  C318 7587  10.404   7.440   3.931  0.4065  0.2490  0.7334
   55DOPC  H18X 7588  10.408   7.551   3.920  2.1387 -0.0227 -4.4679
   55DOPC  H18Y 7589  10.316   7.414   3.868  0.2567  3.4519 -0.5949
   55DOPC  H18Z 7590  10.395   7.415   4.039  1.4072  0.2972  0.8407
   56DOPC     N 7591   6.710   5.144   6.002  0.2190  0.1581  0.2616
   56DOPC   C12 7592   6.557   5.119   5.968 -0.3172 -0.4714 -0.1492
   56DOPC  H12A 7593   6.510   5.216   5.974  0.8677  0.0814  0.7913
   56DOPC  H12B 7594   6.516   5.066   6.052 -1.3848  0.0720 -0.3134
   56DOPC   C13 7595   6.769   5.237   5.906 -0.3065 -0.0022  0.2223
   56DOPC  H13A 7596   6.857   5.282   5.948 -1.4312  2.4481  0.1297
   56DOPC  H13B 7597   6.804   5.184   5.819  0.6290 -0.3104  0.7791
   56DOPC  H13C 7598   6.701   5.314   5.874  1.5260  1.0572 -1.2935
   56DOPC   C14 7599   6.786   5.015   6.001  0.3180  0.4065 -0.6933
   56DOPC  H14A 7600   6.889   5.019   6.034  0.6917 -1.4035 -1.4890
   56DOPC  H14B 7601   6.735   4.937   6.055  0.6533 -1.4047 -2.8388
   56DOPC  H14C 7602   6.791   4.974   5.901 -1.1179  1.6297 -1.3102
   56DOPC   C15 7603   6.718   5.200   6.136 -0.9760 -0.4699  0.0917
   56DOPC  H15A 7604   6.820   5.234   6.147 -2.0600  2.9894  0.6655
   56DOPC  H15B 7605   6.694   5.131   6.216  0.8254 -0.2084  0.9108
   56DOPC  H15C 7606   6.655   5.287   6.145  1.0741  1.2373 -0.9797
   56DOPC   C11 7607   6.535   5.064   5.827  0.0249 -0.7831  0.2013
   56DOPC  H11A 7608   6.427   5.082   5.805 -0.1024 -0.5088  0.9854
   56DOPC  H11B 7609   6.598   5.118   5.753  0.4949 -0.6075  0.7175
   56DOPC     P 7610   6.474   4.811   5.887  0.5372 -0.2390 -0.2001
   56DOPC   O13 7611   6.478   4.829   6.034  0.0753  0.2900 -0.5575
   56DOPC   O14 7612   6.508   4.676   5.831 -0.2372 -0.8140  0.2265
   56DOPC   O12 7613   6.557   4.926   5.817 -0.3114 -0.0179 -0.0095
   56DOPC   O11 7614   6.330   4.850   5.839  0.1407 -0.3373  0.1730
   56DOPC    C1 7615   6.260   4.787   5.731 -0.4189 -0.6325 -0.5770
   56DOPC    HA 7616   6.155   4.780   5.766 -0.6629  1.9413 -0.5595
   56DOPC    HB 7617   6.298   4.686   5.705  0.3767 -0.3556 -0.5291
   56DOPC    C2 7618   6.266   4.883   5.612 -0.0175 -0.5802  0.6082
   56DOPC    HS 7619   6.368   4.927   5.608  0.5713 -1.9448 -0.8163
   56DOPC   O21 7620   6.163   4.977   5.601 -0.1355 -0.1277  0.5293
   56DOPC   C21 7621   6.190   5.098   5.547  0.1186 -0.1698 -0.3282
   56DOPC   O22 7622   6.298   5.142   5.525 -0.1892 -0.0494 -0.2798
   56DOPC   C22 7623   6.059   5.175   5.543 -0.2654 -0.0148  0.4295
   56DOPC   H2R 7624   6.057   5.224   5.642  2.6869  0.3885  0.3864
   56DOPC   H2S 7625   5.973   5.105   5.539 -0.5762  0.3697 -2.6114
   56DOPC    C3 7626   6.257   4.793   5.480 -1.2347 -0.1865  0.5152
   56DOPC    HX 7627   6.157   4.745   5.488 -1.0897 -0.5200  0.3372
   56DOPC    HY 7628   6.341   4.722   5.493  0.9604  1.9055 -1.3336
   56DOPC   O31 7629   6.256   4.875   5.359 -0.0306  0.2021 -0.1865
   56DOPC   C31 7630   6.380   4.909   5.318  0.8057 -0.5807 -0.2027
   56DOPC   O32 7631   6.477   4.876   5.374 -0.8773 -0.0578 -0.1965
   56DOPC   C32 7632   6.369   5.000   5.197  0.4440 -0.9878  0.7206
   56DOPC   H2X 7633   6.267   4.998   5.152  0.7618  2.9334 -0.5953
   56DOPC   H2Y 7634   6.380   5.106   5.229 -2.3861 -0.0358 -1.0870
   56DOPC   C23 7635   6.070   5.273   5.424 -0.3927  0.0482  0.2603
   56DOPC   H3R 7636   6.170   5.318   5.409 -1.2898  1.6169 -1.5479
   56DOPC   H3S 7637   5.993   5.352   5.435  0.0232  0.2828  1.6282
   56DOPC   C24 7638   6.024   5.215   5.290  0.1531 -0.4549  0.4969
   56DOPC   H4R 7639   5.930   5.156   5.294 -0.5813  0.0098 -4.1841
   56DOPC   H4S 7640   6.105   5.144   5.263 -0.4632 -0.8828 -0.2881
   56DOPC   C25 7641   6.020   5.327   5.181  0.4469 -0.1863  0.0439
   56DOPC   H5R 7642   6.116   5.365   5.141  0.1169  1.5907  0.8689
   56DOPC   H5S 7643   5.963   5.417   5.212  1.1370  0.4013 -0.3566
   56DOPC   C26 7644   5.956   5.266   5.052 -0.8395  0.7622 -0.2499
   56DOPC   H6R 7645   5.847   5.272   5.069 -0.8221  1.7439 -0.4321
   56DOPC   H6S 7646   5.976   5.157   5.048 -0.3477  0.8754 -1.5052
   56DOPC   C27 7647   5.993   5.332   4.918 -0.0133 -0.6148 -0.5495
   56DOPC   H7R 7648   6.104   5.331   4.925 -0.0517 -1.9571  0.0729
   56DOPC   H7S 7649   5.952   5.436   4.918  0.2759 -0.4749  1.2919
   56DOPC   C28 7650   5.953   5.259   4.791 -0.2417  0.2067 -0.1641
   56DOPC   H8R 7651   5.845   5.234   4.792  0.0474 -1.1821 -0.6718
   56DOPC   H8S 7652   5.998   5.158   4.803  1.0198  0.8853  1.0279
   56DOPC   C29 7653   5.990   5.337   4.667 -0.0302  0.8550 -0.4464
   56DOPC   H9R 7654   6.094   5.311   4.640  0.2613 -1.0976  2.1173
   56DOPC  C210 7655   5.928   5.430   4.597 -0.8403 -0.7179 -0.3949
   56DOPC  H10R 7656   5.973   5.473   4.507 -0.6222  2.3030  1.0140
   56DOPC  C211 7657   5.797   5.499   4.629  0.5461 -0.0361 -0.0258
   56DOPC  H11R 7658   5.796   5.608   4.650  1.7140 -0.1295  0.6195
   56DOPC  H11S 7659   5.762   5.451   4.722  0.6118  0.9222  0.5029
   56DOPC  C212 7660   5.704   5.461   4.513 -0.4615  0.1236  0.4016
   56DOPC  H12R 7661   5.601   5.489   4.544 -0.5422  2.9154 -1.9427
   56DOPC  H12S 7662   5.713   5.352   4.495 -1.4116 -0.1312  1.3713
   56DOPC  C213 7663   5.737   5.551   4.396 -0.6905 -0.4738 -0.1334
   56DOPC  H13R 7664   5.843   5.553   4.364  0.1811 -0.3894  2.5019
   56DOPC  H13S 7665   5.724   5.655   4.432  2.2435  0.8124 -2.4118
   56DOPC  C214 7666   5.660   5.525   4.269  0.0507  0.1475 -0.3227
   56DOPC  H14R 7667   5.648   5.415   4.267 -0.4079  0.0853  2.3658
   56DOPC  H14S 7668   5.707   5.547   4.171  1.2291 -0.5307  0.0768
   56DOPC  C215 7669   5.524   5.591   4.288  0.2334  0.3762 -0.4267
   56DOPC  H15R 7670   5.535   5.694   4.249  1.0774 -0.1170 -1.5382
   56DOPC  H15S 7671   5.493   5.574   4.394 -0.7703 -1.5854 -0.9913
   56DOPC  C216 7672   5.407   5.525   4.211 -0.1153 -0.0091 -0.3688
   56DOPC  H16R 7673   5.313   5.568   4.253  0.2939  0.0252  0.5324
   56DOPC  H16S 7674   5.405   5.414   4.213  1.1463 -0.0421 -0.4851
   56DOPC  C217 7675   5.405   5.554   4.063  0.6238 -0.0239  0.3142
   56DOPC  H17R 7676   5.504   5.521   4.025  0.3205 -1.1698  0.5038
   56DOPC  H17S 7677   5.402   5.665   4.050  0.2610  0.0157  0.7021
   56DOPC  C218 7678   5.290   5.491   3.986  0.1004 -0.4448  0.2817
   56DOPC  H18R 7679   5.300   5.381   3.991  0.2741 -0.5411 -1.3630
   56DOPC  H18S 7680   5.303   5.521   3.879 -2.2385 -0.6204 -0.1197
   56DOPC  H18T 7681   5.192   5.536   4.015 -0.6592  0.3139 -2.9469
   56DOPC   C33 7682   6.475   4.972   5.081  0.3381 -0.1492 -0.1923
   56DOPC   H3X 7683   6.453   4.866   5.060  1.5037 -0.8877  2.0030
   56DOPC   H3Y 7684   6.581   4.981   5.114 -0.2292  3.3561  1.1052
   56DOPC   C34 7685   6.442   5.042   4.945  0.5068  0.0298  0.1001
   56DOPC   H4X 7686   6.444   5.153   4.946  0.5001  0.0887 -2.1216
   56DOPC   H4Y 7687   6.335   5.017   4.926  0.0839  1.6229  0.2408
   56DOPC   C35 7688   6.550   4.999   4.844 -0.1128 -0.0128  0.8626
   56DOPC   H5X 7689   6.540   4.891   4.816 -1.6781  0.4019 -0.3470
   56DOPC   H5Y 7690   6.653   5.022   4.880  0.1130  1.4108 -0.5804
   56DOPC   C36 7691   6.530   5.075   4.717  0.3685  0.5025 -0.7556
   56DOPC   H6X 7692   6.433   5.056   4.667  1.7785 -0.3337 -3.3565
   56DOPC   H6Y 7693   6.535   5.183   4.744 -0.2191  1.1090 -2.9088
   56DOPC   C37 7694   6.627   5.036   4.609 -0.6653 -0.0860  0.3025
   56DOPC   H7X 7695   6.634   5.129   4.549  1.5285 -1.4154 -1.6790
   56DOPC   H7Y 7696   6.727   5.029   4.657 -0.4065 -1.7666 -0.3960
   56DOPC   C38 7697   6.592   4.923   4.509 -0.5467  0.3117 -0.0809
   56DOPC   H8X 7698   6.507   4.964   4.451  0.2424  1.2833 -0.5767
   56DOPC   H8Y 7699   6.548   4.828   4.545 -0.2359 -0.2584 -1.1412
   56DOPC   C39 7700   6.709   4.885   4.408  0.3838 -0.3504 -0.2038
   56DOPC   H9X 7701   6.794   4.833   4.455 -1.2865 -3.2108 -0.1023
   56DOPC  C310 7702   6.702   4.897   4.272  0.2849 -0.0334 -0.3912
   56DOPC  H10X 7703   6.794   4.866   4.221  1.8461  0.9052  1.6747
   56DOPC  C311 7704   6.595   4.943   4.185 -0.5568  0.4456 -0.4372
   56DOPC  H11X 7705   6.643   4.996   4.100 -1.0110  1.6922  0.0659
   56DOPC  H11Y 7706   6.531   5.017   4.239  0.7539 -1.2925  4.0172
   56DOPC  C312 7707   6.505   4.838   4.121  0.1080  0.1041  0.2215
   56DOPC  H12X 7708   6.439   4.796   4.200  1.1011 -2.1673 -0.0574
   56DOPC  H12Y 7709   6.563   4.748   4.090  0.2852 -0.2188  1.4535
   56DOPC  C313 7710   6.434   4.912   4.004 -0.5049  0.1263 -0.8987
   56DOPC  H13X 7711   6.397   5.009   4.044  0.7531 -0.1263  0.9705
   56DOPC  H13Y 7712   6.513   4.942   3.932 -0.4929 -0.5469 -1.1791
   56DOPC  C314 7713   6.338   4.815   3.932  0.1834  0.1369  0.3817
   56DOPC  H14X 7714   6.283   4.881   3.861  0.1722  0.9950  1.1618
   56DOPC  H14Y 7715   6.396   4.737   3.879  0.7213 -0.8949  2.3959
   56DOPC  C315 7716   6.236   4.747   4.015  0.2386 -0.8463 -0.4242
   56DOPC  H15X 7717   6.163   4.815   4.064  1.2510  0.7609 -1.0872
   56DOPC  H15Y 7718   6.286   4.693   4.098  1.8596 -2.8329 -2.5547
   56DOPC  C316 7719   6.151   4.651   3.928 -0.0560 -0.3938  0.0827
   56DOPC  H16X 7720   6.073   4.611   3.996  0.3027  1.0275  1.3868
   56DOPC  H16Y 7721   6.108   4.713   3.846  1.5196  1.4309  0.5489
   56DOPC  C317 7722   6.226   4.540   3.863 -0.5664  0.3566  0.3013
   56DOPC  H17X 7723   6.314   4.572   3.802 -0.6317 -1.3779 -0.7720
   56DOPC  H17Y 7724   6.271   4.476   3.942  0.7324  0.3365 -0.4293
   56DOPC  C318 7725   6.121   4.462   3.777  0.4219  0.5811 -0.3789
   56DOPC  H18X 7726   6.091   4.522   3.689  0.0539  1.1258  0.1096
   56DOPC  H18Y 7727   6.166   4.364   3.751 -0.6654 -0.1906  0.5458
   56DOPC  H18Z 7728   6.029   4.445   3.836  0.6608  2.1027  0.4880
   57DOPC     N 7729   3.142   9.492   6.490  0.6417  0.1433 -0.6683
   57DOPC   C12 7730   3.088   9.362   6.437  0.1771 -0.3051 -0.3513
   57DOPC  H12A 7731   3.086   9.282   6.510 -1.8932  0.8908  1.0022
   57DOPC  H12B 7732   3.145   9.324   6.353  0.2806  1.9185 -1.3610
   57DOPC   C13 7733   3.081   9.510   6.630 -0.2969 -0.0053 -0.8525
   57DOPC  H13A 7734   3.126   9.598   6.673 -2.0810  0.6687 -0.3105
   57DOPC  H13B 7735   2.973   9.514   6.628 -0.3575 -0.4097  0.6480
   57DOPC  H13C 7736   3.102   9.423   6.691  0.4308  0.0588 -0.9971
   57DOPC   C14 7737   3.109   9.619   6.408  0.6641 -0.2435 -0.1639
   57DOPC  H14A 7738   3.002   9.626   6.396  0.4180 -0.9653  1.3158
   57DOPC  H14B 7739   3.139   9.712   6.454 -0.7138  0.8065 -1.3081
   57DOPC  H14C 7740   3.149   9.620   6.308  0.9141 -0.2452 -0.0658
   57DOPC   C15 7741   3.289   9.478   6.494 -0.2366  0.1580 -0.3217
   57DOPC  H15A 7742   3.343   9.482   6.400 -1.3117 -0.5218 -0.9864
   57DOPC  H15B 7743   3.316   9.394   6.556 -0.3377  0.3287 -0.0460
   57DOPC  H15C 7744   3.320   9.564   6.553 -1.0960 -2.2845  4.1095
   57DOPC   C11 7745   2.946   9.371   6.386  0.0897 -0.1309  0.1699
   57DOPC  H11A 7746   2.947   9.443   6.301  0.3227 -0.6036 -0.2339
   57DOPC  H11B 7747   2.906   9.279   6.337 -4.1959  0.5033  2.0232
   57DOPC     P 7748   2.747   9.527   6.473  0.7219 -0.1739 -0.4609
   57DOPC   O13 7749   2.802   9.647   6.409  0.2594 -0.3475  0.9886
   57DOPC   O14 7750   2.700   9.562   6.612  0.0498 -0.1955  0.6804
   57DOPC   O12 7751   2.856   9.416   6.493  0.0261  0.6516  0.2335
   57DOPC   O11 7752   2.624   9.461   6.396 -0.3105 -0.0018  0.0094
   57DOPC    C1 7753   2.576   9.334   6.389  0.4946  0.0298 -0.3482
   57DOPC    HA 7754   2.478   9.339   6.442  0.7482 -0.4850  0.1828
   57DOPC    HB 7755   2.648   9.269   6.443 -0.5041  0.6756  1.8913
   57DOPC    C2 7756   2.565   9.285   6.248 -0.6547 -0.3188  0.1113
   57DOPC    HS 7757   2.668   9.249   6.228 -0.2036  1.4650 -1.0640
   57DOPC   O21 7758   2.533   9.404   6.166 -0.4604 -0.2723 -0.0298
   57DOPC   C21 7759   2.637   9.455   6.111  0.3126 -0.1341  0.8894
   57DOPC   O22 7760   2.751   9.407   6.091  0.2529 -0.1974 -0.0280
   57DOPC   C22 7761   2.596   9.591   6.066 -0.4421  0.7426 -0.5649
   57DOPC   H2R 7762   2.645   9.660   6.138  2.4824 -0.3316 -1.4005
   57DOPC   H2S 7763   2.486   9.604   6.068 -0.7283 -0.8304  3.5386
   57DOPC    C3 7764   2.454   9.182   6.235 -0.5877 -0.3725 -0.0926
   57DOPC    HX 7765   2.364   9.211   6.293  0.2980  2.7259 -0.1046
   57DOPC    HY 7766   2.484   9.084   6.278 -0.8807 -1.2457 -1.7940
   57DOPC   O31 7767   2.417   9.164   6.096  0.3064 -0.0856  0.5130
   57DOPC   C31 7768   2.502   9.081   6.034 -0.0444  0.2302  0.0721
   57DOPC   O32 7769   2.593   9.012   6.088  0.1480  0.2268 -0.0451
   57DOPC   C32 7770   2.462   9.072   5.885  0.5872  0.2103 -0.6017
   57DOPC   H2X 7771   2.389   8.990   5.867 -0.0874  0.1608  2.0056
   57DOPC   H2Y 7772   2.417   9.168   5.852 -1.5389 -0.9974 -1.3883
   57DOPC   C23 7773   2.653   9.634   5.929  0.5561  0.5630 -0.2036
   57DOPC   H3R 7774   2.761   9.658   5.920  0.9983 -1.1306  0.2997
   57DOPC   H3S 7775   2.612   9.736   5.910  2.4089  1.5450  0.7456
   57DOPC   C24 7776   2.609   9.557   5.803  0.7707  0.7920  0.2831
   57DOPC   H4R 7777   2.503   9.527   5.800  1.1380 -0.5577 -3.0996
   57DOPC   H4S 7778   2.660   9.459   5.788 -0.3097 -0.0901  2.0132
   57DOPC   C25 7779   2.622   9.643   5.684  0.3157 -0.7532 -0.0153
   57DOPC   H5R 7780   2.727   9.672   5.662 -0.1022  0.6688 -0.2977
   57DOPC   H5S 7781   2.573   9.741   5.704  0.7882 -0.7196  1.0506
   57DOPC   C26 7782   2.551   9.586   5.563 -0.1383 -0.2666  0.8366
   57DOPC   H6R 7783   2.448   9.550   5.584 -0.0075 -2.3759 -1.5972
   57DOPC   H6S 7784   2.602   9.495   5.524  0.7803  1.5817 -2.7453
   57DOPC   C27 7785   2.547   9.697   5.448 -0.2425 -0.3684  0.1843
   57DOPC   H7R 7786   2.638   9.760   5.457 -0.5951  0.2462 -0.4904
   57DOPC   H7S 7787   2.458   9.758   5.474 -0.5719 -0.5322 -0.5493
   57DOPC   C28 7788   2.533   9.645   5.305 -0.2649 -0.5945 -0.2250
   57DOPC   H8R 7789   2.611   9.572   5.274  0.0704 -0.8368  1.1449
   57DOPC   H8S 7790   2.556   9.742   5.255  0.0240 -0.1785  0.6953
   57DOPC   C29 7791   2.390   9.603   5.270  0.1213  0.1449  0.5385
   57DOPC   H9R 7792   2.350   9.531   5.342  1.3243 -0.5477  0.5301
   57DOPC  C210 7793   2.313   9.645   5.164 -0.1869 -0.7432 -0.4856
   57DOPC  H10R 7794   2.214   9.602   5.149  0.1087 -1.0252 -1.7109
   57DOPC  C211 7795   2.363   9.728   5.047  0.3327 -0.7527  0.0820
   57DOPC  H11R 7796   2.462   9.776   5.062 -0.1809 -0.1218  1.6063
   57DOPC  H11S 7797   2.303   9.821   5.045  0.9452 -0.2555  2.2188
   57DOPC  C212 7798   2.367   9.660   4.916  0.2902  0.4074  0.2659
   57DOPC  H12R 7799   2.452   9.588   4.920  0.3586  0.5336  1.3433
   57DOPC  H12S 7800   2.379   9.732   4.832 -1.5721  0.2275 -0.1903
   57DOPC  C213 7801   2.244   9.572   4.882 -0.4754  0.2052 -0.5688
   57DOPC  H13R 7802   2.154   9.635   4.897 -1.2265 -1.2954  1.7942
   57DOPC  H13S 7803   2.239   9.494   4.962  1.2801  1.6965  1.1245
   57DOPC  C214 7804   2.252   9.518   4.736 -0.0763  0.5404  0.1066
   57DOPC  H14R 7805   2.350   9.468   4.722 -0.2281  0.2909 -0.0649
   57DOPC  H14S 7806   2.252   9.605   4.667  1.1330  0.8632  0.4977
   57DOPC  C215 7807   2.140   9.424   4.691  0.0242  0.0101 -0.3885
   57DOPC  H15R 7808   2.046   9.477   4.665 -1.4839 -1.2904  2.0451
   57DOPC  H15S 7809   2.109   9.367   4.781  0.2514  0.2326 -0.1666
   57DOPC  C216 7810   2.182   9.329   4.579 -0.0238 -0.0949 -0.1073
   57DOPC  H16R 7811   2.275   9.278   4.613  0.2107  0.5196  0.1759
   57DOPC  H16S 7812   2.207   9.378   4.483  0.0298  1.6611  0.7613
   57DOPC  C217 7813   2.061   9.244   4.549  0.0007  0.1101  0.1892
   57DOPC  H17R 7814   1.965   9.300   4.560 -0.2696 -0.1051 -0.9356
   57DOPC  H17S 7815   2.059   9.163   4.625  1.5811 -0.5123 -0.3951
   57DOPC  C218 7816   2.076   9.167   4.417  0.3004 -0.0755  0.4831
   57DOPC  H18R 7817   1.985   9.109   4.393 -1.4175  2.5115  0.3090
   57DOPC  H18S 7818   2.160   9.096   4.431  0.2035 -0.5403 -1.1179
   57DOPC  H18T 7819   2.100   9.237   4.334  1.9586  0.5489  1.4291
   57DOPC   C33 7820   2.596   9.046   5.803  0.6817  0.0604 -0.2514
   57DOPC   H3X 7821   2.629   8.948   5.842 -0.1621 -0.6666 -1.3007
   57DOPC   H3Y 7822   2.659   9.132   5.835 -1.3578  1.4531  0.2278
   57DOPC   C34 7823   2.565   9.029   5.659  0.5777 -0.3589  0.0841
   57DOPC   H4X 7824   2.488   8.948   5.656  0.5827 -0.3919  0.6154
   57DOPC   H4Y 7825   2.654   8.995   5.604 -0.3485 -1.0748 -1.0229
   57DOPC   C35 7826   2.531   9.166   5.593  0.4896 -0.3692 -0.0644
   57DOPC   H5X 7827   2.581   9.246   5.652  2.8914 -1.8886  0.1046
   57DOPC   H5Y 7828   2.423   9.187   5.606  0.5525  0.1601 -0.3500
   57DOPC   C36 7829   2.564   9.174   5.442 -0.1404  0.3414  0.1923
   57DOPC   H6X 7830   2.550   9.073   5.399  0.4901 -0.0221  0.8225
   57DOPC   H6Y 7831   2.499   9.245   5.385  1.2033  0.0259 -1.8161
   57DOPC   C37 7832   2.710   9.225   5.411  0.5821  0.1566 -1.3975
   57DOPC   H7X 7833   2.720   9.307   5.485 -3.4243 -2.2493  2.2386
   57DOPC   H7Y 7834   2.774   9.139   5.439 -1.4807 -1.4470 -1.4211
   57DOPC   C38 7835   2.721   9.267   5.263 -0.6576 -1.0205 -0.2158
   57DOPC   H8X 7836   2.654   9.354   5.249  2.3348  1.0665 -3.4229
   57DOPC   H8Y 7837   2.690   9.179   5.202  2.8888 -0.8428 -2.6017
   57DOPC   C39 7838   2.861   9.300   5.228 -0.1824 -0.8231  0.0688
   57DOPC   H9X 7839   2.916   9.356   5.305 -0.6439 -0.1554 -0.0788
   57DOPC  C310 7840   2.934   9.255   5.122  0.6914 -0.3866 -0.6629
   57DOPC  H10X 7841   3.033   9.302   5.117  0.6566 -0.1949  0.3000
   57DOPC  C311 7842   2.895   9.157   5.011  0.7157  0.4941  0.4072
   57DOPC  H11X 7843   2.793   9.179   4.975 -0.4124 -0.8732  2.5356
   57DOPC  H11Y 7844   2.896   9.052   5.048 -0.6536 -0.1598 -1.3087
   57DOPC  C312 7845   2.977   9.171   4.883  0.8085  0.7619 -0.5070
   57DOPC  H12X 7846   3.061   9.101   4.897  0.3980  0.5255  0.9741
   57DOPC  H12Y 7847   3.029   9.269   4.884  0.5774  0.9797  3.0473
   57DOPC  C313 7848   2.908   9.140   4.748 -0.6033 -0.5029 -0.0313
   57DOPC  H13X 7849   2.907   9.034   4.717 -0.2834 -0.2786 -0.8247
   57DOPC  H13Y 7850   2.801   9.169   4.744 -1.1376 -2.1652  0.9867
   57DOPC  C314 7851   2.984   9.219   4.646  0.0874 -0.4387  0.8136
   57DOPC  H14X 7852   3.016   9.318   4.685  1.3494 -0.3108 -0.4558
   57DOPC  H14Y 7853   3.074   9.164   4.612 -0.2704  0.0593 -1.0556
   57DOPC  C315 7854   2.900   9.245   4.529 -0.0019  0.1249 -0.9853
   57DOPC  H15X 7855   2.951   9.322   4.467 -0.5844  1.4739  0.1678
   57DOPC  H15Y 7856   2.802   9.293   4.552 -0.0253  0.1682 -1.1736
   57DOPC  C316 7857   2.875   9.132   4.434 -0.2468 -0.4682 -0.6261
   57DOPC  H16X 7858   2.965   9.086   4.387  0.1939  1.5185 -1.8587
   57DOPC  H16Y 7859   2.829   9.046   4.487  1.7642  0.0055  2.1822
   57DOPC  C317 7860   2.781   9.178   4.316  0.2420 -0.2316  0.2186
   57DOPC  H17X 7861   2.703   9.246   4.355 -0.1590  1.0312 -2.4989
   57DOPC  H17Y 7862   2.838   9.235   4.239 -1.8117  0.4245 -0.8970
   57DOPC  C318 7863   2.704   9.064   4.244 -0.1026  0.0954  0.1997
   57DOPC  H18X 7864   2.609   9.049   4.299 -0.5855  0.6505 -0.4744
   57DOPC  H18Y 7865   2.672   9.104   4.145  0.1627  2.8964  1.1409
   57DOPC  H18Z 7866   2.767   8.976   4.220  0.5893  1.4768 -3.7939
   58DOPC     N 7867   0.156   2.171   6.397  0.1015  0.1434 -0.4642
   58DOPC   C12 7868   0.112   2.028   6.388 -0.4854  0.8171  0.4245
   58DOPC  H12A 7869   0.020   2.011   6.440  0.8217 -1.3626  2.2010
   58DOPC  H12B 7870   0.183   1.965   6.439 -1.3984 -1.9807 -1.5213
   58DOPC   C13 7871   0.127   2.215   6.541  0.3416 -0.9909  0.2008
   58DOPC  H13A 7872   0.178   2.155   6.615 -1.2613 -2.2227  0.3732
   58DOPC  H13B 7873   0.164   2.314   6.561 -1.0716 -0.7699  2.0255
   58DOPC  H13C 7874   0.022   2.219   6.569  0.1134 -0.7258 -0.6734
   58DOPC   C14 7875   0.060   2.242   6.314 -0.0335 -0.6102 -0.0349
   58DOPC  H14A 7876  -0.042   2.218   6.338  0.0028 -1.5926 -0.7882
   58DOPC  H14B 7877   0.074   2.349   6.316  1.6614 -0.8158  0.4795
   58DOPC  H14C 7878   0.076   2.207   6.213  1.9844  0.3753 -0.1118
   58DOPC   C15 7879   0.289   2.204   6.362 -0.1934 -0.1494  0.5349
   58DOPC  H15A 7880   0.359   2.164   6.435  0.5133  0.6110  0.2913
   58DOPC  H15B 7881   0.307   2.310   6.356 -1.1789  0.0576  1.0847
   58DOPC  H15C 7882   0.312   2.162   6.265 -0.2923 -1.8382  1.2037
   58DOPC   C11 7883   0.099   1.961   6.243 -0.9598  0.1882  0.2772
   58DOPC  H11A 7884   0.091   1.850   6.246  0.5401 -0.0082 -1.4437
   58DOPC  H11B 7885   0.001   1.985   6.196 -0.7913 -2.2306 -1.5206
   58DOPC     P 7886   0.262   1.901   6.053  0.1389 -0.2800 -0.4435
   58DOPC   O13 7887   0.349   1.795   6.116 -0.3606 -0.3466 -0.1293
   58DOPC   O14 7888   0.323   1.988   5.950 -0.1723  0.3878 -0.1687
   58DOPC   O12 7889   0.214   1.998   6.166 -0.0049 -0.6540  0.4916
   58DOPC   O11 7890   0.133   1.833   5.995 -0.1410  0.3680  0.1030
   58DOPC    C1 7891   0.038   1.895   5.913  0.6056 -0.7317 -0.0496
   58DOPC    HA 7892   0.046   2.006   5.905 -1.8964 -0.5093 -0.3510
   58DOPC    HB 7893  -0.065   1.888   5.956 -0.0735  2.9442 -0.6807
   58DOPC    C2 7894   0.040   1.839   5.770 -0.2178  0.2852  0.0653
   58DOPC    HS 7895  -0.026   1.750   5.765  0.8887 -0.4830 -1.4476
   58DOPC   O21 7896   0.179   1.816   5.732 -0.4783  0.4085 -0.5202
   58DOPC   C21 7897   0.201   1.712   5.658 -0.4795  0.0286  0.4998
   58DOPC   O22 7898   0.118   1.648   5.594  0.4990 -0.4233  0.4222
   58DOPC   C22 7899   0.342   1.662   5.685  0.3925 -0.0564  0.3354
   58DOPC   H2R 7900   0.322   1.580   5.758 -1.8237  0.4413  0.3709
   58DOPC   H2S 7901   0.405   1.740   5.732  1.0561  0.3745 -1.2240
   58DOPC    C3 7902  -0.013   1.964   5.686  0.2645  0.5680  0.4558
   58DOPC    HX 7903   0.070   2.038   5.680  1.2125 -0.4831  0.2198
   58DOPC    HY 7904  -0.102   2.008   5.736 -0.4243 -1.4640  1.1045
   58DOPC   O31 7905  -0.051   1.922   5.554  0.6173  0.2023 -0.0475
   58DOPC   C31 7906  -0.154   1.841   5.539  0.1371 -0.2185 -0.0567
   58DOPC   O32 7907  -0.225   1.795   5.629  0.0664 -0.0248  0.2998
   58DOPC   C32 7908  -0.171   1.809   5.386  0.0285  0.1907  0.8444
   58DOPC   H2X 7909  -0.278   1.808   5.356  0.5253  1.4688 -1.1273
   58DOPC   H2Y 7910  -0.133   1.894   5.326 -0.5280 -0.4400 -0.4348
   58DOPC   C23 7911   0.413   1.604   5.556 -0.1745  0.5745  0.8182
   58DOPC   H3R 7912   0.351   1.520   5.518  0.1002 -0.4754  2.5563
   58DOPC   H3S 7913   0.508   1.559   5.594  0.6018  1.0983 -0.4290
   58DOPC   C24 7914   0.435   1.717   5.449 -0.7774  0.6159  0.4491
   58DOPC   H4R 7915   0.340   1.712   5.392 -0.2197 -0.8996 -0.3843
   58DOPC   H4S 7916   0.511   1.686   5.375 -0.7798  1.1175  0.2275
   58DOPC   C25 7917   0.473   1.856   5.508  0.4790  0.3616 -0.4022
   58DOPC   H5R 7918   0.553   1.847   5.584  0.0453  2.6438  0.4155
   58DOPC   H5S 7919   0.384   1.899   5.560  0.1228 -1.1307  0.2865
   58DOPC   C26 7920   0.531   1.949   5.402 -0.4519  0.5194 -0.0676
   58DOPC   H6R 7921   0.460   1.948   5.317  0.1569 -1.2780 -0.5838
   58DOPC   H6S 7922   0.619   1.894   5.363 -0.1012 -0.1182  1.5408
   58DOPC   C27 7923   0.539   2.090   5.454  0.4962 -1.5554 -0.2178
   58DOPC   H7R 7924   0.591   2.089   5.552 -0.7917  0.3152  0.5357
   58DOPC   H7S 7925   0.445   2.141   5.482  1.0052 -1.3866  1.2516
   58DOPC   C28 7926   0.624   2.179   5.358  0.3115 -0.5445  0.0610
   58DOPC   H8R 7927   0.584   2.188   5.255 -0.1009 -0.8166  0.1982
   58DOPC   H8S 7928   0.721   2.124   5.351  1.1224  0.7763  0.4780
   58DOPC   C29 7929   0.657   2.308   5.429 -0.4328 -0.5211 -0.3355
   58DOPC   H9R 7930   0.669   2.285   5.536 -2.0054  1.2539  0.2797
   58DOPC  C210 7931   0.659   2.438   5.391 -0.4113 -0.0414  0.3122
   58DOPC  H10R 7932   0.674   2.520   5.463 -0.9347 -0.4499  0.9047
   58DOPC  C211 7933   0.617   2.482   5.252 -0.0224  0.0222  0.8977
   58DOPC  H11R 7934   0.538   2.559   5.263 -1.2027 -0.8223 -1.1049
   58DOPC  H11S 7935   0.568   2.396   5.202  1.4168 -1.0946  1.3240
   58DOPC  C212 7936   0.729   2.537   5.162  0.7841  0.7452 -0.9132
   58DOPC  H12R 7937   0.678   2.585   5.076 -1.2497 -1.0587 -0.7980
   58DOPC  H12S 7938   0.790   2.450   5.127 -1.2924 -0.8857 -0.6814
   58DOPC  C213 7939   0.820   2.642   5.223  1.1668  0.0491  0.3098
   58DOPC  H13R 7940   0.880   2.600   5.307  0.2174 -0.7958  0.5809
   58DOPC  H13S 7941   0.764   2.728   5.268 -1.8248 -1.5672 -0.0360
   58DOPC  C214 7942   0.917   2.696   5.134  0.1532  0.2038 -0.4363
   58DOPC  H14R 7943   0.985   2.611   5.111 -1.6296 -1.3372 -0.2916
   58DOPC  H14S 7944   0.963   2.779   5.191  0.7698 -0.5110  0.1213
   58DOPC  C215 7945   0.877   2.747   4.994  0.0325  0.4675  0.0557
   58DOPC  H15R 7946   0.837   2.667   4.929  1.9084  0.4238 -1.1246
   58DOPC  H15S 7947   0.967   2.782   4.937 -0.4516  0.8143 -0.5092
   58DOPC  C216 7948   0.780   2.867   5.003  0.1192 -0.1483  0.5289
   58DOPC  H16R 7949   0.825   2.944   5.068  2.8925  0.0455 -1.4376
   58DOPC  H16S 7950   0.683   2.833   5.045  0.7363 -1.2817  1.0891
   58DOPC  C217 7951   0.752   2.950   4.879  0.2730  0.1711  0.2650
   58DOPC  H17R 7952   0.842   3.005   4.844  0.8167 -0.5613  0.4830
   58DOPC  H17S 7953   0.678   3.029   4.905  1.5739  1.5659 -0.1144
   58DOPC  C218 7954   0.711   2.873   4.750 -0.2437  0.3781  0.5165
   58DOPC  H18R 7955   0.772   2.782   4.737 -0.4896 -0.0375  2.0496
   58DOPC  H18S 7956   0.730   2.927   4.655  0.9698 -3.7130 -1.7691
   58DOPC  H18T 7957   0.602   2.850   4.751 -0.3939  1.0147 -0.2689
   58DOPC   C33 7958  -0.102   1.676   5.337  0.0221  0.5271  0.2772
   58DOPC   H3X 7959  -0.140   1.595   5.403  0.6696 -1.1337 -1.3029
   58DOPC   H3Y 7960   0.009   1.678   5.338  0.0442  0.8083 -0.9193
   58DOPC   C34 7961  -0.153   1.626   5.207  0.3423 -0.7470  0.5850
   58DOPC   H4X 7962  -0.263   1.625   5.197  0.2739  3.0663 -1.0614
   58DOPC   H4Y 7963  -0.111   1.528   5.177  1.9755  0.3855 -1.1510
   58DOPC   C35 7964  -0.123   1.727   5.094  0.8626  0.6712  0.0866
   58DOPC   H5X 7965  -0.020   1.767   5.106  0.4389  2.4885 -1.7966
   58DOPC   H5Y 7966  -0.187   1.816   5.106 -0.0189  0.0071  0.4146
   58DOPC   C36 7967  -0.139   1.676   4.955  0.0697  0.3681  0.1371
   58DOPC   H6X 7968  -0.066   1.596   4.928  0.9878  1.8339 -1.9631
   58DOPC   H6Y 7969  -0.239   1.630   4.944 -0.2273  0.6513  1.4662
   58DOPC   C37 7970  -0.111   1.783   4.851 -0.9007 -0.1267  0.4153
   58DOPC   H7X 7971  -0.182   1.867   4.863 -1.8631 -0.7220 -0.8962
   58DOPC   H7Y 7972  -0.010   1.826   4.869  0.3782 -1.4353 -2.8632
   58DOPC   C38 7973  -0.131   1.720   4.708 -0.1094 -0.2911  0.2056
   58DOPC   H8X 7974  -0.241   1.706   4.702 -0.2268  0.1370  1.1228
   58DOPC   H8Y 7975  -0.079   1.623   4.695 -0.9666 -0.3680 -3.9343
   58DOPC   C39 7976  -0.091   1.818   4.603  0.0125 -0.5889 -0.0057
   58DOPC   H9X 7977   0.012   1.857   4.604 -0.8461  1.8556  0.0607
   58DOPC  C310 7978  -0.171   1.855   4.501  0.5736  0.2536  0.6972
   58DOPC  H10X 7979  -0.123   1.915   4.423 -1.2065  0.9320  0.0696
   58DOPC  C311 7980  -0.313   1.809   4.460 -0.5408 -0.1909 -0.5345
   58DOPC  H11X 7981  -0.371   1.903   4.442  0.6107  0.3336 -1.6394
   58DOPC  H11Y 7982  -0.359   1.743   4.537  1.3902  0.2015  1.0173
   58DOPC  C312 7983  -0.301   1.741   4.325 -0.2693  0.9573 -0.0268
   58DOPC  H12X 7984  -0.233   1.653   4.331 -0.9908  0.4948  2.0579
   58DOPC  H12Y 7985  -0.249   1.803   4.250 -0.3941  0.6409 -0.3821
   58DOPC  C313 7986  -0.439   1.700   4.278  0.0576 -0.1534  0.4254
   58DOPC  H13X 7987  -0.488   1.632   4.351  0.9077  0.9435  2.0833
   58DOPC  H13Y 7988  -0.503   1.791   4.279 -0.3725 -0.4391  2.0340
   58DOPC  C314 7989  -0.443   1.643   4.129 -0.2226  0.7514 -0.6951
   58DOPC  H14X 7990  -0.388   1.713   4.063  0.8927  0.1876 -0.3734
   58DOPC  H14Y 7991  -0.385   1.549   4.129 -0.3914  0.5964  1.4174
   58DOPC  C315 7992  -0.589   1.619   4.079 -0.3265 -0.5672 -0.1408
   58DOPC  H15X 7993  -0.647   1.572   4.161 -1.3786  1.1293  0.1272
   58DOPC  H15Y 7994  -0.572   1.544   3.999  4.6703 -1.2426  1.1983
   58DOPC  C316 7995  -0.670   1.732   4.020  0.1496 -0.6339 -0.0961
   58DOPC  H16X 7996  -0.705   1.803   4.098 -1.1669 -0.0691 -1.1631
   58DOPC  H16Y 7997  -0.621   1.796   3.943  1.1649 -1.0872  0.1516
   58DOPC  C317 7998  -0.790   1.680   3.952 -0.5110  0.1330 -0.7371
   58DOPC  H17X 7999  -0.749   1.621   3.867 -2.2800  0.1830 -1.6776
   58DOPC  H17Y 8000  -0.853   1.606   4.006 -0.6531  0.1601 -0.8645
   58DOPC  C318 8001  -0.886   1.782   3.893  0.6028 -0.1573 -0.1050
   58DOPC  H18X 8002  -0.845   1.883   3.871 -0.8150  0.3439 -0.5419
   58DOPC  H18Y 8003  -0.933   1.734   3.804  0.5960  1.2457 -0.8957
   58DOPC  H18Z 8004  -0.968   1.788   3.967 -0.8829  0.7111 -1.7446
   59DOPC     N 8005   7.252   0.841   6.996  0.1526  0.1385 -0.7858
   59DOPC   C12 8006   7.381   0.878   6.938 -0.6001 -0.1536  0.3145
   59DOPC  H12A 8007   7.459   0.817   6.980  0.9409  1.4123 -0.1683
   59DOPC  H12B 8008   7.409   0.978   6.966  3.4184 -0.6086 -1.4343
   59DOPC   C13 8009   7.248   0.894   7.128  0.3498 -0.4315 -0.9593
   59DOPC  H13A 8010   7.258   1.001   7.125 -3.2604  0.0766  0.3894
   59DOPC  H13B 8011   7.153   0.894   7.179  1.8506 -2.3470  2.1205
   59DOPC  H13C 8012   7.323   0.854   7.194 -0.7776  0.4282  0.9114
   59DOPC   C14 8013   7.233   0.695   6.990  0.0423 -0.2583 -0.3790
   59DOPC  H14A 8014   7.309   0.635   7.038  1.1995 -0.2990 -2.1499
   59DOPC  H14B 8015   7.143   0.663   7.039  0.5161 -1.5450 -0.3117
   59DOPC  H14C 8016   7.235   0.662   6.887 -0.1154  0.1538 -0.5179
   59DOPC   C15 8017   7.135   0.910   6.923 -0.4292  0.2651 -0.2666
   59DOPC  H15A 8018   7.138   0.872   6.822  0.6774  1.1653 -0.6030
   59DOPC  H15B 8019   7.150   1.016   6.908 -1.2289  0.1699 -1.8929
   59DOPC  H15C 8020   7.040   0.882   6.966 -0.8028 -0.1246 -1.3304
   59DOPC   C11 8021   7.389   0.883   6.788 -0.1211 -0.3440 -0.2953
   59DOPC  H11A 8022   7.341   0.796   6.738 -0.6343 -0.3826  0.2552
   59DOPC  H11B 8023   7.334   0.976   6.761  0.8480 -0.7894 -4.6104
   59DOPC     P 8024   7.625   0.782   6.745  0.5489 -0.2573  0.4817
   59DOPC   O13 8025   7.640   0.729   6.881 -0.0863  0.5866 -0.1298
   59DOPC   O14 8026   7.752   0.827   6.683 -0.0338 -0.3388  0.1675
   59DOPC   O12 8027   7.524   0.903   6.753 -0.4085  0.3728 -0.7008
   59DOPC   O11 8028   7.555   0.678   6.640  0.0052 -0.3050 -0.6049
   59DOPC    C1 8029   7.508   0.718   6.516  0.7813  0.1082  0.3070
   59DOPC    HA 8030   7.530   0.824   6.492 -1.9022  0.4310 -1.1183
   59DOPC    HB 8031   7.397   0.723   6.513  0.8354  2.2108 -2.1813
   59DOPC    C2 8032   7.551   0.622   6.402  0.3918 -0.5029  0.5280
   59DOPC    HS 8033   7.488   0.533   6.422  1.4861 -1.1760  1.1127
   59DOPC   O21 8034   7.696   0.602   6.391  0.1398 -0.4273 -0.2215
   59DOPC   C21 8035   7.739   0.499   6.464  0.4217 -0.7585  0.0382
   59DOPC   O22 8036   7.676   0.425   6.535  0.4142  0.4732 -0.7040
   59DOPC   C22 8037   7.895   0.492   6.445 -0.1543 -0.1704 -0.2163
   59DOPC   H2R 8038   7.942   0.583   6.487  1.1305 -0.0202 -1.8681
   59DOPC   H2S 8039   7.907   0.494   6.335 -1.3721  0.3315 -0.3576
   59DOPC    C3 8040   7.499   0.675   6.264 -0.2948  0.6050 -1.4403
   59DOPC    HX 8041   7.553   0.770   6.241  1.3520 -0.1282 -0.7131
   59DOPC    HY 8042   7.390   0.695   6.279  0.1307  2.4876 -0.6069
   59DOPC   O31 8043   7.512   0.566   6.170  0.5679 -0.0874 -0.1346
   59DOPC   C31 8044   7.541   0.609   6.045 -0.0045  0.1175  0.2153
   59DOPC   O32 8045   7.581   0.723   6.019  0.2813 -0.1083  0.0519
   59DOPC   C32 8046   7.496   0.494   5.952  0.0409 -0.3055  0.2280
   59DOPC   H2X 8047   7.568   0.410   5.953  0.6451  0.2062  0.0716
   59DOPC   H2Y 8048   7.393   0.466   5.982 -0.9734  1.0163 -1.7485
   59DOPC   C23 8049   7.969   0.375   6.508  0.0082 -0.1054  0.0381
   59DOPC   H3R 8050   7.906   0.285   6.493 -0.0284  0.1891 -1.8429
   59DOPC   H3S 8051   7.995   0.396   6.614  3.1805  0.6289 -0.7744
   59DOPC   C24 8052   8.107   0.344   6.447  0.0277  0.7242  0.3224
   59DOPC   H4R 8053   8.082   0.326   6.340  2.5139 -0.4599 -0.1222
   59DOPC   H4S 8054   8.142   0.249   6.492  0.0479 -0.3179 -1.7899
   59DOPC   C25 8055   8.207   0.460   6.458  0.5413 -0.3007  0.2633
   59DOPC   H5R 8056   8.231   0.482   6.564 -0.8154 -0.4403  0.6236
   59DOPC   H5S 8057   8.153   0.550   6.420  2.0908 -0.3414 -2.2301
   59DOPC   C26 8058   8.330   0.437   6.371 -0.6256 -0.0937  0.0866
   59DOPC   H6R 8059   8.311   0.416   6.263 -0.9134 -0.8133  0.2753
   59DOPC   H6S 8060   8.366   0.345   6.422 -0.6552  0.7269  1.6305
   59DOPC   C27 8061   8.445   0.538   6.384 -0.0937 -0.4222  0.3954
   59DOPC   H7R 8062   8.544   0.487   6.385 -0.1807 -0.6821 -1.3551
   59DOPC   H7S 8063   8.443   0.602   6.474  1.3968 -0.4572  0.4859
   59DOPC   C28 8064   8.448   0.642   6.267 -0.8431  0.1003 -0.2461
   59DOPC   H8R 8065   8.343   0.678   6.276 -1.1555 -1.0867  1.4204
   59DOPC   H8S 8066   8.467   0.596   6.168  0.1717  0.6184 -0.3072
   59DOPC   C29 8067   8.556   0.749   6.294  0.5869  1.1799 -0.5520
   59DOPC   H9R 8068   8.563   0.772   6.401 -1.3488  0.0932 -0.1367
   59DOPC  C210 8069   8.643   0.803   6.210  0.1761 -0.5245 -0.7292
   59DOPC  H10R 8070   8.702   0.886   6.252  1.6062 -1.5644 -0.5927
   59DOPC  C211 8071   8.662   0.773   6.060  0.0234  0.2103  0.7736
   59DOPC  H11R 8072   8.576   0.706   6.039 -1.2259  2.7849 -3.5366
   59DOPC  H11S 8073   8.755   0.716   6.041 -0.8147 -2.0692  2.9515
   59DOPC  C212 8074   8.639   0.890   5.968 -0.2418  0.1318 -0.3417
   59DOPC  H12R 8075   8.723   0.962   5.973  0.5605 -0.7522 -0.6023
   59DOPC  H12S 8076   8.546   0.939   6.004  0.9473  1.1071  1.5240
   59DOPC  C213 8077   8.621   0.860   5.818  0.0276  0.2830  0.1817
   59DOPC  H13R 8078   8.573   0.946   5.765  1.1784  0.6104 -0.3706
   59DOPC  H13S 8079   8.550   0.777   5.797  0.6218 -0.0524 -0.5508
   59DOPC  C214 8080   8.755   0.839   5.746  0.7384 -0.1337  0.1898
   59DOPC  H14R 8081   8.818   0.753   5.774 -0.4281 -0.8242  0.8037
   59DOPC  H14S 8082   8.825   0.921   5.773 -0.4314  0.1859  2.5600
   59DOPC  C215 8083   8.724   0.848   5.595  0.0551 -0.1539  0.0319
   59DOPC  H15R 8084   8.677   0.946   5.574 -1.2370 -0.0089  3.0965
   59DOPC  H15S 8085   8.648   0.770   5.574 -0.6483  1.0979 -2.3735
   59DOPC  C216 8086   8.852   0.831   5.520 -0.2392  0.7114  0.0455
   59DOPC  H16R 8087   8.875   0.725   5.539 -1.5929  0.6666  1.5680
   59DOPC  H16S 8088   8.931   0.898   5.560  0.0912 -0.2904  1.1002
   59DOPC  C217 8089   8.845   0.839   5.372  0.3506 -0.0295 -0.0469
   59DOPC  H17R 8090   8.818   0.944   5.345  2.0739  0.1807 -1.1150
   59DOPC  H17S 8091   8.772   0.771   5.323  0.0373  0.0628  0.2891
   59DOPC  C218 8092   8.991   0.814   5.314 -0.2177  0.1095 -0.5548
   59DOPC  H18R 8093   9.010   0.857   5.214  1.2831  0.2259 -0.2463
   59DOPC  H18S 8094   9.012   0.705   5.317 -0.6231  0.0352 -0.4767
   59DOPC  H18T 8095   9.064   0.860   5.384 -0.0816 -2.2223  0.9455
   59DOPC   C33 8096   7.490   0.534   5.806 -0.6785 -0.5533 -0.0510
   59DOPC   H3X 8097   7.442   0.633   5.793 -0.2128 -0.3617 -0.3750
   59DOPC   H3Y 8098   7.430   0.461   5.749 -0.4902 -1.0897  0.4211
   59DOPC   C34 8099   7.626   0.538   5.731 -0.6915 -0.4020 -0.1567
   59DOPC   H4X 8100   7.709   0.592   5.780  1.6164 -4.1479  0.4833
   59DOPC   H4Y 8101   7.621   0.588   5.632  1.6792 -1.4851 -0.9134
   59DOPC   C35 8102   7.678   0.396   5.684 -0.1025  0.2840  0.5472
   59DOPC   H5X 8103   7.629   0.393   5.584 -2.1923 -1.1947  1.5454
   59DOPC   H5Y 8104   7.631   0.315   5.743 -2.0230  0.2763 -0.8943
   59DOPC   C36 8105   7.827   0.389   5.660 -0.2376 -0.1419 -0.1000
   59DOPC   H6X 8106   7.862   0.483   5.613  0.7140 -1.2791 -1.8394
   59DOPC   H6Y 8107   7.883   0.382   5.755  1.2308  2.5970 -0.6754
   59DOPC   C37 8108   7.871   0.282   5.559 -0.1344 -0.5122  1.0292
   59DOPC   H7X 8109   7.834   0.332   5.467 -0.4492  0.7011  1.7887
   59DOPC   H7Y 8110   7.981   0.274   5.547 -0.0577  1.6928 -0.3631
   59DOPC   C38 8111   7.807   0.143   5.578  0.2941  1.1136  0.2090
   59DOPC   H8X 8112   7.791   0.107   5.474  0.3878  1.0570  0.2140
   59DOPC   H8Y 8113   7.714   0.140   5.639  1.0435  2.4821  1.5154
   59DOPC   C39 8114   7.910   0.057   5.655  0.6804  0.1166 -0.6483
   59DOPC   H9X 8115   7.931   0.086   5.759  0.1238  0.7158 -0.6995
   59DOPC  C310 8116   7.957  -0.062   5.613  0.1916 -0.4155 -0.0262
   59DOPC  H10X 8117   8.021  -0.127   5.674 -0.8160 -1.0817  0.3563
   59DOPC  C311 8118   7.916  -0.142   5.492 -0.3490 -0.3172 -0.1484
   59DOPC  H11X 8119   7.853  -0.082   5.423  0.7989  0.0286 -0.9279
   59DOPC  H11Y 8120   7.849  -0.225   5.521 -0.2194  0.1165  1.4519
   59DOPC  C312 8121   8.023  -0.209   5.403 -0.3733 -0.0264  0.4178
   59DOPC  H12X 8122   7.964  -0.287   5.352 -1.3599 -0.2726  1.8594
   59DOPC  H12Y 8123   8.102  -0.251   5.470  0.9444 -0.7925 -1.5436
   59DOPC  C313 8124   8.089  -0.114   5.306  0.1340  0.3773  0.1576
   59DOPC  H13X 8125   8.082  -0.014   5.355 -2.8108 -0.7897  2.4323
   59DOPC  H13Y 8126   8.197  -0.140   5.301 -0.0511 -1.1100  2.3567
   59DOPC  C314 8127   8.039  -0.106   5.156 -0.7915  0.2985  0.3247
   59DOPC  H14X 8128   8.043  -0.206   5.106 -1.4978  1.0994 -1.4060
   59DOPC  H14Y 8129   7.933  -0.073   5.158 -0.1525  2.4497  0.8749
   59DOPC  C315 8130   8.114   0.009   5.084  0.1439 -0.5743  1.0858
   59DOPC  H15X 8131   8.223  -0.011   5.075  0.2346 -0.7069  2.3035
   59DOPC  H15Y 8132   8.103   0.100   5.147 -0.1392 -0.5985  1.0706
   59DOPC  C316 8133   8.052   0.054   4.949  0.1473  0.1273 -0.0648
   59DOPC  H16X 8134   8.012  -0.034   4.894 -3.8028 -0.3397  3.1344
   59DOPC  H16Y 8135   7.962   0.110   4.981  0.9567  0.9187  0.8925
   59DOPC  C317 8136   8.131   0.163   4.876  0.4104 -1.2592 -0.0510
   59DOPC  H17X 8137   8.074   0.197   4.787 -1.0807 -0.6301  1.1139
   59DOPC  H17Y 8138   8.132   0.255   4.937  0.0341 -0.5779 -1.0382
   59DOPC  C318 8139   8.275   0.127   4.833 -0.2518  0.1778  0.1477
   59DOPC  H18X 8140   8.318   0.208   4.770  0.9041 -0.8621 -0.4569
   59DOPC  H18Y 8141   8.341   0.123   4.922 -0.5112  2.6807  0.5083
   59DOPC  H18Z 8142   8.285   0.028   4.783  1.8108  0.3789  0.0498
   60DOPC     N 8143   3.402  10.575   6.238 -0.5329  0.3147 -0.4121
   60DOPC   C12 8144   3.436  10.535   6.098 -0.1847 -0.1858 -0.3107
   60DOPC  H12A 8145   3.532  10.578   6.075 -0.6691  0.8867 -0.3687
   60DOPC  H12B 8146   3.378  10.589   6.024  1.0377 -0.3736 -1.4366
   60DOPC   C13 8147   3.486  10.495   6.342 -0.3250 -0.6890  0.2232
   60DOPC  H13A 8148   3.461  10.540   6.437 -1.3842 -2.0037  0.6083
   60DOPC  H13B 8149   3.453  10.392   6.331  0.4136 -0.8981 -0.0480
   60DOPC  H13C 8150   3.590  10.506   6.318 -0.2872 -0.4685  0.4764
   60DOPC   C14 8151   3.263  10.543   6.271  0.5729 -0.1030 -0.2567
   60DOPC  H14A 8152   3.194  10.612   6.224 -0.4340  0.2207  1.5997
   60DOPC  H14B 8153   3.227  10.445   6.244 -2.1848  0.5599  0.6976
   60DOPC  H14C 8154   3.249  10.554   6.377 -0.6285 -3.4703  0.0308
   60DOPC   C15 8155   3.424  10.726   6.240 -0.0734 -0.3312  0.4053
   60DOPC  H15A 8156   3.397  10.767   6.337 -3.4384 -0.5268 -0.3290
   60DOPC  H15B 8157   3.357  10.773   6.169 -0.3254 -0.6900  0.4034
   60DOPC  H15C 8158   3.529  10.750   6.226  0.0546 -1.2691 -0.3066
   60DOPC   C11 8159   3.441  10.382   6.067  0.2702  0.3778 -0.1104
   60DOPC  H11A 8160   3.354  10.332   6.115  0.5880 -0.1159 -0.0344
   60DOPC  H11B 8161   3.431  10.380   5.957 -1.6086  2.4808 -0.0478
   60DOPC     P 8162   3.591  10.165   6.123  0.1379  0.3224 -0.7671
   60DOPC   O13 8163   3.469  10.093   6.173  0.2917  0.1160  0.1451
   60DOPC   O14 8164   3.720  10.142   6.200 -0.1544  0.1391 -0.1745
   60DOPC   O12 8165   3.563  10.322   6.121  0.1212  0.4217  0.1154
   60DOPC   O11 8166   3.619  10.131   5.975  0.2401  0.0295 -0.1072
   60DOPC    C1 8167   3.512  10.141   5.877  0.0968 -0.1724  1.1821
   60DOPC    HA 8168   3.530  10.211   5.792 -2.9921  1.4819  1.7289
   60DOPC    HB 8169   3.414  10.176   5.917 -0.9358  0.5720 -1.7428
   60DOPC    C2 8170   3.491  10.000   5.819 -0.0390  0.0102 -0.0974
   60DOPC    HS 8171   3.470   9.941   5.911  1.7367 -0.1909  0.2044
   60DOPC   O21 8172   3.616   9.957   5.760  0.6148  0.0013  0.4898
   60DOPC   C21 8173   3.618   9.839   5.710  0.0414  0.5244 -0.2148
   60DOPC   O22 8174   3.540   9.750   5.740 -0.3796 -0.1128  0.1984
   60DOPC   C22 8175   3.740   9.828   5.616 -0.4595 -0.5463  0.2594
   60DOPC   H2R 8176   3.774   9.722   5.616  4.5219  0.7932  1.7935
   60DOPC   H2S 8177   3.826   9.885   5.657  0.0454 -0.6471 -0.6399
   60DOPC    C3 8178   3.372   9.984   5.717  0.1818 -0.7526 -0.1953
   60DOPC    HX 8179   3.285  10.001   5.785 -0.5765 -0.7495 -1.1435
   60DOPC    HY 8180   3.355   9.883   5.674  3.5738 -1.6022  0.1761
   60DOPC   O31 8181   3.391  10.086   5.617  0.1590  0.4552  0.3284
   60DOPC   C31 8182   3.312  10.187   5.613 -0.6184  0.6336 -0.2503
   60DOPC   O32 8183   3.220  10.199   5.692  0.9619 -0.4004 -0.0238
   60DOPC   C32 8184   3.353  10.289   5.506  0.1915  0.7642 -0.2366
   60DOPC   H2X 8185   3.370  10.380   5.568  1.6986 -0.9521  2.0240
   60DOPC   H2Y 8186   3.454  10.265   5.466  1.0693  1.8203  1.2365
   60DOPC   C23 8187   3.703   9.868   5.470 -0.3488  0.3866  0.0861
   60DOPC   H3R 8188   3.601   9.825   5.457 -0.4849  0.0096  2.0951
   60DOPC   H3S 8189   3.777   9.815   5.407  0.2290 -0.3135  1.3331
   60DOPC   C24 8190   3.705  10.014   5.440  0.3824  0.3791 -0.1787
   60DOPC   H4R 8191   3.801  10.058   5.476  1.5398 -1.4472 -0.9187
   60DOPC   H4S 8192   3.613  10.056   5.486  0.1294 -1.2025  0.8218
   60DOPC   C25 8193   3.693  10.044   5.292 -0.1022  0.3397  0.0257
   60DOPC   H5R 8194   3.789  10.013   5.247  0.8731  0.7651  1.7524
   60DOPC   H5S 8195   3.685  10.155   5.286  0.9552  0.3563 -1.7642
   60DOPC   C26 8196   3.569   9.978   5.237 -0.1595  0.3298  0.0979
   60DOPC   H6R 8197   3.489  10.032   5.292  1.8993  2.7591  0.9131
   60DOPC   H6S 8198   3.568   9.868   5.254 -2.9785 -0.0318 -1.7186
   60DOPC   C27 8199   3.550   9.998   5.089 -0.1171 -0.2503 -0.4931
   60DOPC   H7R 8200   3.590  10.098   5.061  3.7629 -1.8073 -1.0176
   60DOPC   H7S 8201   3.440  10.002   5.075 -0.2724  0.1786  0.6891
   60DOPC   C28 8202   3.629   9.900   5.002 -0.5295  0.1264  0.0719
   60DOPC   H8R 8203   3.615   9.797   5.041  0.0304  0.2139  0.5077
   60DOPC   H8S 8204   3.733   9.934   5.022 -0.8557  0.0026  2.1899
   60DOPC   C29 8205   3.595   9.911   4.854 -0.0533  0.8011 -0.3900
   60DOPC   H9R 8206   3.541  10.004   4.830  0.3708  1.3668  0.7867
   60DOPC  C210 8207   3.609   9.816   4.762  0.1499  0.7577 -0.4899
   60DOPC  H10R 8208   3.563   9.828   4.663  0.5138 -1.3229 -0.9473
   60DOPC  C211 8209   3.683   9.690   4.770 -0.1806 -0.5246 -0.2519
   60DOPC  H11R 8210   3.622   9.607   4.813  0.9746 -0.3688  1.8536
   60DOPC  H11S 8211   3.764   9.709   4.844 -2.3975 -1.6963  2.6952
   60DOPC  C212 8212   3.743   9.655   4.631  0.4793 -1.1946  0.0245
   60DOPC  H12R 8213   3.837   9.598   4.650  1.5306 -0.0789 -1.5884
   60DOPC  H12S 8214   3.778   9.746   4.579  3.6912 -1.7986  0.9101
   60DOPC  C213 8215   3.646   9.573   4.543  0.2147  0.0522  0.3393
   60DOPC  H13R 8216   3.557   9.633   4.513 -1.6512 -2.8824 -0.4468
   60DOPC  H13S 8217   3.601   9.494   4.606 -0.6522  0.5242  0.3389
   60DOPC  C214 8218   3.721   9.525   4.419 -0.0295  0.2310  0.3612
   60DOPC  H14R 8219   3.799   9.452   4.451 -0.4905 -0.5562 -0.2574
   60DOPC  H14S 8220   3.783   9.601   4.368  0.1480 -0.9887 -1.3225
   60DOPC  C215 8221   3.624   9.462   4.316 -0.1405 -0.4423  0.1152
   60DOPC  H15R 8222   3.571   9.542   4.261  1.5869 -0.6681 -2.0285
   60DOPC  H15S 8223   3.551   9.396   4.367  0.2839 -1.2736 -0.3170
   60DOPC  C216 8224   3.691   9.373   4.206 -0.5276  0.3359  0.5306
   60DOPC  H16R 8225   3.796   9.405   4.188 -1.0916  2.8583  1.3556
   60DOPC  H16S 8226   3.633   9.395   4.114  0.3048  0.9013  0.1167
   60DOPC  C217 8227   3.683   9.220   4.221  0.1088 -0.1867 -0.2994
   60DOPC  H17R 8228   3.584   9.174   4.237 -1.2707  2.3715 -0.9111
   60DOPC  H17S 8229   3.751   9.195   4.306  0.9273  1.3592 -0.4636
   60DOPC  C218 8230   3.737   9.153   4.104  0.1780  0.3708 -0.1114
   60DOPC  H18R 8231   3.732   9.043   4.120 -1.4369  0.5730  1.1382
   60DOPC  H18S 8232   3.844   9.173   4.083 -0.1043  1.3952 -0.6534
   60DOPC  H18T 8233   3.682   9.175   4.011  1.3699  1.1878 -0.6503
   60DOPC   C33 8234   3.254  10.291   5.391 -0.0569 -0.1013 -0.1701
   60DOPC   H3X 8235   3.167  10.356   5.414  0.1242  0.1382 -0.1527
   60DOPC   H3Y 8236   3.204  10.194   5.370  0.6609 -0.5106 -0.0128
   60DOPC   C34 8237   3.317  10.341   5.264 -0.5786  0.3528  0.8040
   60DOPC   H4X 8238   3.409  10.283   5.242  0.5268  2.9000 -1.9064
   60DOPC   H4Y 8239   3.360  10.440   5.293  1.8223 -0.7046  1.1274
   60DOPC   C35 8240   3.222  10.350   5.142 -0.0356  0.3536 -0.0037
   60DOPC   H5X 8241   3.268  10.419   5.068  2.9585 -1.6648 -0.2408
   60DOPC   H5Y 8242   3.125  10.380   5.187 -0.2617 -0.2409 -0.0790
   60DOPC   C36 8243   3.221  10.216   5.073  0.2394  0.0895 -1.0589
   60DOPC   H6X 8244   3.321  10.169   5.077  0.0746 -0.1671  0.9414
   60DOPC   H6Y 8245   3.148  10.148   5.121  1.5737  0.2580  1.3321
   60DOPC   C37 8246   3.179  10.233   4.926 -0.4939 -0.2766 -0.2411
   60DOPC   H7X 8247   3.070  10.249   4.919 -0.4857 -0.5101 -1.0959
   60DOPC   H7Y 8248   3.240  10.315   4.882  1.0383 -0.5660  1.2565
   60DOPC   C38 8249   3.201  10.098   4.846  0.0128 -0.4319 -0.0064
   60DOPC   H8X 8250   3.306  10.070   4.868  0.4352  1.6452  0.9212
   60DOPC   H8Y 8251   3.192  10.115   4.737  2.0535 -1.5054 -0.3748
   60DOPC   C39 8252   3.099   9.997   4.871  0.2025  1.1367  0.3141
   60DOPC   H9X 8253   2.998  10.035   4.849  0.5548  0.7833 -2.2383
   60DOPC  C310 8254   3.124   9.874   4.909  0.9596  0.5554  0.1848
   60DOPC  H10X 8255   3.035   9.815   4.935  1.4535  0.1831  1.0969
   60DOPC  C311 8256   3.251   9.803   4.934 -0.3257  0.1930  0.2594
   60DOPC  H11X 8257   3.255   9.794   5.045  1.8072 -1.3522  0.1283
   60DOPC  H11Y 8258   3.338   9.852   4.886 -0.4744 -1.1061 -1.4556
   60DOPC  C312 8259   3.243   9.654   4.887 -0.6027 -0.1268 -0.6001
   60DOPC  H12X 8260   3.156   9.609   4.939 -1.3555  2.0162  0.1073
   60DOPC  H12Y 8261   3.341   9.607   4.910 -0.9485 -0.0697  1.1166
   60DOPC  C313 8262   3.229   9.642   4.734  0.1917 -0.4189 -0.5118
   60DOPC  H13X 8263   3.121   9.644   4.709  0.2803 -2.9141 -1.3500
   60DOPC  H13Y 8264   3.283   9.715   4.671  0.7379 -0.4823 -0.1260
   60DOPC  C314 8265   3.267   9.506   4.675  0.0045 -0.3886 -0.6272
   60DOPC  H14X 8266   3.366   9.483   4.719 -0.6965 -1.1696  0.5708
   60DOPC  H14Y 8267   3.196   9.431   4.716  0.8089 -0.9405 -0.2285
   60DOPC  C315 8268   3.255   9.504   4.524 -0.0009  0.3659 -0.4666
   60DOPC  H15X 8269   3.341   9.550   4.470 -1.0898  1.5100 -1.2613
   60DOPC  H15Y 8270   3.157   9.544   4.491 -1.0057 -0.1927  1.6935
   60DOPC  C316 8271   3.273   9.362   4.474  0.0228 -0.7607  0.3073
   60DOPC  H16X 8272   3.377   9.327   4.494 -0.1350 -2.2183 -1.1782
   60DOPC  H16Y 8273   3.207   9.295   4.532  0.9518 -2.7774 -0.8221
   60DOPC  C317 8274   3.235   9.338   4.327 -0.4230 -0.2808  0.1438
   60DOPC  H17X 8275   3.128   9.367   4.321  0.0531  1.3231 -1.6023
   60DOPC  H17Y 8276   3.296   9.404   4.261 -0.1213  0.8122  1.4705
   60DOPC  C318 8277   3.267   9.196   4.282  0.1366  0.0369 -0.9340
   60DOPC  H18X 8278   3.172   9.137   4.284  0.0861  0.1403  0.8583
   60DOPC  H18Y 8279   3.300   9.201   4.176 -0.6811 -2.6955 -1.4152
   60DOPC  H18Z 8280   3.348   9.148   4.340 -1.3334 -0.5704  0.7028
   61DOPC     N 8281   3.739   7.296   6.392 -0.3884  0.1531 -0.1196
   61DOPC   C12 8282   3.712   7.428   6.466  0.5642 -0.4486  0.1515
   61DOPC  H12A 8283   3.778   7.501   6.421  2.6606 -2.8621 -0.9772
   61DOPC  H12B 8284   3.736   7.423   6.571  0.5227  1.7995  0.3146
   61DOPC   C13 8285   3.698   7.305   6.251 -0.4503  0.9767 -0.0468
   61DOPC  H13A 8286   3.695   7.409   6.220  0.8818  1.5087  1.4442
   61DOPC  H13B 8287   3.759   7.250   6.182 -2.0119 -1.0061  0.0737
   61DOPC  H13C 8288   3.601   7.262   6.233  0.0787  0.2286 -1.2557
   61DOPC   C14 8289   3.669   7.181   6.459 -0.2106 -0.2120 -0.7237
   61DOPC  H14A 8290   3.676   7.188   6.566 -3.4382 -0.5096 -0.3737
   61DOPC  H14B 8291   3.563   7.176   6.437 -0.0555 -1.6926 -1.2399
   61DOPC  H14C 8292   3.707   7.087   6.421 -0.4888 -1.1034  1.1098
   61DOPC   C15 8293   3.895   7.273   6.401  0.2219 -0.5495  0.1955
   61DOPC  H15A 8294   3.923   7.175   6.364 -0.7566 -0.7358 -0.0682
   61DOPC  H15B 8295   3.928   7.289   6.503  1.4486  1.1701 -0.4152
   61DOPC  H15C 8296   3.958   7.339   6.343  0.1246 -0.3445  0.3227
   61DOPC   C11 8297   3.578   7.487   6.446  0.4078 -0.3727  0.9012
   61DOPC  H11A 8298   3.498   7.410   6.446  0.2536 -0.2132  1.1429
   61DOPC  H11B 8299   3.547   7.565   6.519 -1.4944  0.2771 -0.5265
   61DOPC     P 8300   3.443   7.558   6.239 -0.1105  0.4945 -0.3445
   61DOPC   O13 8301   3.340   7.632   6.315  0.7848  0.2479 -0.0517
   61DOPC   O14 8302   3.424   7.419   6.200 -0.2162 -0.1331 -0.0529
   61DOPC   O12 8303   3.578   7.564   6.320 -0.1941  0.3274  0.1065
   61DOPC   O11 8304   3.478   7.648   6.117  0.4125  0.2449  0.5298
   61DOPC    C1 8305   3.573   7.747   6.132 -0.0110  0.5317 -0.6732
   61DOPC    HA 8306   3.678   7.711   6.136  0.2833  1.4235  0.2017
   61DOPC    HB 8307   3.560   7.803   6.228  2.7044  0.7515 -0.3437
   61DOPC    C2 8308   3.558   7.852   6.018 -0.1336 -0.1231 -0.1990
   61DOPC    HS 8309   3.456   7.894   6.035  0.0960  0.0576  0.7815
   61DOPC   O21 8310   3.593   7.817   5.884  0.4384 -0.1367 -0.4735
   61DOPC   C21 8311   3.515   7.885   5.792  0.0360  0.6206 -0.0286
   61DOPC   O22 8312   3.439   7.975   5.816 -0.9752 -0.4669 -0.0332
   61DOPC   C22 8313   3.539   7.808   5.665 -0.0222 -0.6230 -0.3466
   61DOPC   H2R 8314   3.530   7.703   5.700 -1.1502 -1.1544 -2.0529
   61DOPC   H2S 8315   3.645   7.829   5.642 -0.2639  2.4077  0.8860
   61DOPC    C3 8316   3.667   7.955   6.063 -0.2514  0.7768  0.2686
   61DOPC    HX 8317   3.757   7.896   6.089 -1.2142 -1.1791 -0.6632
   61DOPC    HY 8318   3.640   8.007   6.157  2.5483  3.1307 -0.0868
   61DOPC   O31 8319   3.698   8.055   5.965 -0.1201  0.2172 -0.0462
   61DOPC   C31 8320   3.809   8.039   5.895  0.5051 -0.0345 -0.3136
   61DOPC   O32 8321   3.906   7.973   5.925  0.0410 -0.1655  0.1860
   61DOPC   C32 8322   3.791   8.108   5.761 -0.2565  0.2576  0.2557
   61DOPC   H2X 8323   3.699   8.068   5.714  0.9137 -1.6844 -0.5630
   61DOPC   H2Y 8324   3.782   8.215   5.788 -2.2207  0.4266 -0.9299
   61DOPC   C23 8325   3.446   7.822   5.544 -0.8321 -0.3276 -0.0584
   61DOPC   H3R 8326   3.338   7.809   5.569 -0.7939  1.2179  1.0871
   61DOPC   H3S 8327   3.473   7.744   5.471  2.2627 -0.4643  1.0787
   61DOPC   C24 8328   3.464   7.964   5.481 -0.3797  0.2093 -0.1670
   61DOPC   H4R 8329   3.570   7.972   5.449 -0.9279 -0.0792 -2.1683
   61DOPC   H4S 8330   3.451   8.038   5.563 -0.3953  0.5343 -0.4604
   61DOPC   C25 8331   3.358   7.985   5.376 -0.2360  0.4131  0.0768
   61DOPC   H5R 8332   3.371   8.087   5.335 -0.0668  1.2399  2.0606
   61DOPC   H5S 8333   3.256   7.979   5.420  0.0896  0.8732  0.9168
   61DOPC   C26 8334   3.360   7.881   5.266 -0.0382 -0.0547 -0.2233
   61DOPC   H6R 8335   3.311   7.791   5.308 -0.5466  0.3920  0.1625
   61DOPC   H6S 8336   3.464   7.865   5.230  0.1817  1.5157 -0.3468
   61DOPC   C27 8337   3.276   7.936   5.151 -0.6077 -0.1406  0.2987
   61DOPC   H7R 8338   3.325   8.022   5.100 -0.5100 -0.1637  0.3534
   61DOPC   H7S 8339   3.180   7.975   5.190 -0.4530  0.4721  0.0805
   61DOPC   C28 8340   3.231   7.834   5.044  0.6476 -0.0914  0.0178
   61DOPC   H8R 8341   3.168   7.885   4.968 -0.9384  1.7740  2.4239
   61DOPC   H8S 8342   3.161   7.762   5.090 -1.9176  1.4838 -1.2016
   61DOPC   C29 8343   3.342   7.747   4.984 -0.1812  0.0252  0.0226
   61DOPC   H9R 8344   3.412   7.697   5.053  0.5906 -1.4367 -1.7425
   61DOPC  C210 8345   3.381   7.751   4.857 -0.2517 -0.0877 -0.3059
   61DOPC  H10R 8346   3.474   7.694   4.840  0.7946 -0.0288  3.9942
   61DOPC  C211 8347   3.321   7.822   4.740 -0.3295  0.2460  0.3663
   61DOPC  H11R 8348   3.327   7.932   4.757  0.9946  0.4238 -0.9950
   61DOPC  H11S 8349   3.213   7.797   4.735 -0.1743 -0.4113  0.2126
   61DOPC  C212 8350   3.392   7.809   4.608 -0.0116  0.5167  0.2127
   61DOPC  H12R 8351   3.503   7.815   4.613  0.1044 -1.3481  0.4612
   61DOPC  H12S 8352   3.364   7.900   4.550 -0.1903  0.7164  0.6017
   61DOPC  C213 8353   3.350   7.687   4.527  0.1008  0.0708  0.1263
   61DOPC  H13R 8354   3.244   7.699   4.495  0.5061  1.0817 -0.9268
   61DOPC  H13S 8355   3.383   7.591   4.570  2.2599 -0.4509 -2.4313
   61DOPC  C214 8356   3.439   7.667   4.401  0.3491  0.4920  0.0480
   61DOPC  H14R 8357   3.413   7.581   4.335  0.4292  1.2080 -0.9304
   61DOPC  H14S 8358   3.536   7.631   4.440  0.0691  0.0920  0.3907
   61DOPC  C215 8359   3.446   7.806   4.320  0.1936  0.0731  0.0398
   61DOPC  H15R 8360   3.499   7.885   4.378 -1.3322  1.2693 -0.1431
   61DOPC  H15S 8361   3.344   7.846   4.302  0.4412  1.4549  1.5060
   61DOPC  C216 8362   3.507   7.778   4.189 -0.2949  0.4852  0.3309
   61DOPC  H16R 8363   3.455   7.706   4.123  1.7640 -1.2922  0.5525
   61DOPC  H16S 8364   3.608   7.736   4.210 -0.5818 -0.7911 -0.7636
   61DOPC  C217 8365   3.541   7.904   4.115 -0.1256  0.2104  1.1205
   61DOPC  H17R 8366   3.561   7.983   4.191  0.7005  0.4688  0.6481
   61DOPC  H17S 8367   3.442   7.932   4.073 -1.8757 -3.1876  2.6211
   61DOPC  C218 8368   3.643   7.896   4.001  0.3092  0.1269  0.0180
   61DOPC  H18R 8369   3.643   7.978   3.926  1.4255 -1.3810 -1.7006
   61DOPC  H18S 8370   3.625   7.801   3.946 -1.9312  0.9658 -0.8123
   61DOPC  H18T 8371   3.743   7.872   4.043  0.6020 -0.0326 -0.7631
   61DOPC   C33 8372   3.915   8.091   5.671 -0.2154 -0.3975 -0.3873
   61DOPC   H3X 8373   4.003   8.125   5.729 -0.4710  2.7766 -1.6578
   61DOPC   H3Y 8374   3.899   8.163   5.588 -1.4759 -2.1958 -1.7904
   61DOPC   C34 8375   3.939   7.949   5.618 -0.3110 -0.1086  0.2286
   61DOPC   H4X 8376   3.855   7.913   5.555  0.4536  2.8808 -2.7342
   61DOPC   H4Y 8377   3.936   7.878   5.704 -1.4489 -0.8882 -0.4278
   61DOPC   C35 8378   4.069   7.938   5.526  0.1155  0.0846 -0.1428
   61DOPC   H5X 8379   4.062   8.019   5.451 -1.0329  0.1181 -0.0144
   61DOPC   H5Y 8380   4.066   7.843   5.469 -0.9793  2.0669 -3.7099
   61DOPC   C36 8381   4.194   7.948   5.604 -0.4869  0.0224  0.4157
   61DOPC   H6X 8382   4.211   8.032   5.676  1.3736  0.4156 -0.4380
   61DOPC   H6Y 8383   4.228   7.858   5.659  1.1954  0.6580  0.4805
   61DOPC   C37 8384   4.312   7.975   5.503 -0.0448 -1.0226 -0.4128
   61DOPC   H7X 8385   4.361   7.880   5.472  1.4493 -1.1798  2.1038
   61DOPC   H7Y 8386   4.263   8.009   5.410  0.3435 -0.4505 -0.4077
   61DOPC   C38 8387   4.417   8.075   5.554 -0.6570  0.0917  0.1351
   61DOPC   H8X 8388   4.368   8.166   5.595  1.8702  1.9281 -0.6555
   61DOPC   H8Y 8389   4.472   8.111   5.464  1.5136 -1.4710  0.7577
   61DOPC   C39 8390   4.509   8.013   5.653 -0.0961  0.1417 -0.6937
   61DOPC   H9X 8391   4.469   7.980   5.750  2.0620 -0.0094  0.2045
   61DOPC  C310 8392   4.639   7.972   5.624  0.0980 -0.3002 -0.0145
   61DOPC  H10X 8393   4.682   7.916   5.708 -0.8251 -1.0585 -0.0280
   61DOPC  C311 8394   4.706   7.957   5.491 -0.6685  0.8699 -0.2533
   61DOPC  H11X 8395   4.805   8.006   5.493 -0.3799  0.4048 -1.7745
   61DOPC  H11Y 8396   4.649   8.006   5.410 -0.5689  2.1721  0.4347
   61DOPC  C312 8397   4.720   7.813   5.437  0.4591 -0.6028 -0.8785
   61DOPC  H12X 8398   4.625   7.763   5.406  1.2172 -1.4694 -1.8909
   61DOPC  H12Y 8399   4.764   7.744   5.513 -1.7267 -1.0675  0.0432
   61DOPC  C313 8400   4.798   7.800   5.307 -0.1247  0.1782 -0.3783
   61DOPC  H13X 8401   4.746   7.843   5.218 -1.0354 -1.6390 -0.7603
   61DOPC  H13Y 8402   4.897   7.848   5.323  0.5015 -0.7278 -1.4016
   61DOPC  C314 8403   4.835   7.652   5.281 -0.0006 -0.3786  0.5845
   61DOPC  H14X 8404   4.906   7.624   5.361  1.9560 -0.4878 -1.1118
   61DOPC  H14Y 8405   4.751   7.579   5.290 -0.2551 -0.0301  1.0410
   61DOPC  C315 8406   4.899   7.641   5.144 -0.0537 -0.3514 -0.1206
   61DOPC  H15X 8407   4.832   7.683   5.066 -0.3596  1.6748  1.1704
   61DOPC  H15Y 8408   4.911   7.533   5.118 -2.2326 -0.5698 -0.4287
   61DOPC  C316 8409   5.034   7.710   5.144  0.1880  0.4207 -0.0089
   61DOPC  H16X 8410   5.013   7.819   5.149 -1.2754  0.1878 -0.5028
   61DOPC  H16Y 8411   5.100   7.676   5.226  0.4260  0.4981 -0.1653
   61DOPC  C317 8412   5.116   7.678   5.019 -0.1197  1.3085 -0.2654
   61DOPC  H17X 8413   5.215   7.727   5.032  0.2852  0.4751 -0.1298
   61DOPC  H17Y 8414   5.143   7.571   5.009 -1.1368  0.9439  0.7674
   61DOPC  C318 8415   5.047   7.724   4.888  0.0870 -0.5385 -0.2373
   61DOPC  H18X 8416   4.950   7.672   4.874 -1.8627  2.9073 -0.7095
   61DOPC  H18Y 8417   5.025   7.833   4.884 -0.3279 -0.6328 -0.6544
   61DOPC  H18Z 8418   5.100   7.693   4.796 -0.4364 -0.6468 -0.5063
   62DOPC     N 8419   2.755  11.938   6.270  0.0644  0.3643 -0.4809
   62DOPC   C12 8420   2.691  11.930   6.134 -0.7798  0.0877  0.2530
   62DOPC  H12A 8421   2.768  11.894   6.068 -1.0804 -1.0644  0.5164
   62DOPC  H12B 8422   2.653  12.027   6.105 -0.3877  0.3534  0.6108
   62DOPC   C13 8423   2.661  11.991   6.375  0.1568  0.1873 -0.2310
   62DOPC  H13A 8424   2.696  11.982   6.477  0.6256 -1.1366 -0.4906
   62DOPC  H13B 8425   2.639  12.096   6.360 -1.1498  0.3330  2.1824
   62DOPC  H13C 8426   2.566  11.941   6.375 -0.3796  1.1290 -1.8650
   62DOPC   C14 8427   2.866  12.030   6.265  0.5122 -0.5866  0.0529
   62DOPC  H14A 8428   2.910  12.040   6.363 -1.2426 -1.5233  0.9822
   62DOPC  H14B 8429   2.943  11.995   6.198  1.5169  2.0903 -0.3072
   62DOPC  H14C 8430   2.832  12.129   6.237  0.9358 -0.9519 -1.9025
   62DOPC   C15 8431   2.803  11.809   6.307  0.2240 -0.0423 -0.2526
   62DOPC  H15A 8432   2.887  11.771   6.252 -0.7133 -2.5323 -0.1286
   62DOPC  H15B 8433   2.731  11.729   6.293 -0.6986  0.7640 -0.2143
   62DOPC  H15C 8434   2.834  11.792   6.409  0.2999  0.8221 -0.1276
   62DOPC   C11 8435   2.571  11.835   6.124  0.5007 -0.1679  0.3724
   62DOPC  H11A 8436   2.549  11.809   6.018  0.7692  1.0101  0.0119
   62DOPC  H11B 8437   2.589  11.739   6.177 -0.2008 -0.2201  0.5270
   62DOPC     P 8438   2.393  12.032   6.125  0.3246 -0.5789 -0.0940
   62DOPC   O13 8439   2.421  12.145   6.215  0.3304  0.3262 -0.1454
   62DOPC   O14 8440   2.249  12.009   6.092 -0.1216 -0.1175  0.9508
   62DOPC   O12 8441   2.455  11.901   6.183 -0.1197  0.9890 -0.7042
   62DOPC   O11 8442   2.472  12.062   5.990  0.1166 -0.1247  0.2324
   62DOPC    C1 8443   2.432  12.012   5.864  0.5007 -0.0970 -0.3379
   62DOPC    HA 8444   2.342  11.947   5.869  1.7460 -1.9174 -0.5893
   62DOPC    HB 8445   2.510  11.956   5.808 -1.0145 -2.2848 -0.3948
   62DOPC    C2 8446   2.405  12.129   5.769 -0.4444 -0.2838  0.8118
   62DOPC    HS 8447   2.378  12.074   5.677  0.6295  1.2819 -0.4764
   62DOPC   O21 8448   2.524  12.215   5.754  0.2101 -0.1609  0.4121
   62DOPC   C21 8449   2.624  12.183   5.671 -0.1340  0.0742 -0.7438
   62DOPC   O22 8450   2.639  12.085   5.601  0.3968  0.6166  0.2885
   62DOPC   C22 8451   2.721  12.299   5.673 -0.9755 -0.0050  0.1588
   62DOPC   H2R 8452   2.828  12.270   5.664 -1.2220 -0.4345 -1.7247
   62DOPC   H2S 8453   2.709  12.352   5.770  2.5828 -2.4646  2.2168
   62DOPC    C3 8454   2.272  12.210   5.802  0.0841 -0.2313  0.3577
   62DOPC    HX 8455   2.259  12.257   5.902  1.1214  0.8554  0.0110
   62DOPC    HY 8456   2.188  12.137   5.804 -0.1874  0.0394 -0.4358
   62DOPC   O31 8457   2.251  12.317   5.708 -0.6139  0.5364  0.2314
   62DOPC   C31 8458   2.299  12.437   5.735  0.3672  0.2597  0.5671
   62DOPC   O32 8459   2.360  12.471   5.832 -0.6267  0.1247 -0.4764
   62DOPC   C32 8460   2.276  12.509   5.608 -0.5408 -0.3515 -0.1874
   62DOPC   H2X 8461   2.331  12.460   5.524  0.1922 -1.4549  0.9008
   62DOPC   H2Y 8462   2.170  12.518   5.575 -0.9327 -0.0133  1.1319
   62DOPC   C23 8463   2.696  12.404   5.561  0.0579 -0.0672  0.1475
   62DOPC   H3R 8464   2.764  12.489   5.582 -1.3632  1.6215 -1.6735
   62DOPC   H3S 8465   2.591  12.440   5.569  0.4450  0.9444  1.0171
   62DOPC   C24 8466   2.744  12.360   5.424 -0.4175 -0.1014  0.8666
   62DOPC   H4R 8467   2.689  12.275   5.379 -0.6789  1.1202 -1.2462
   62DOPC   H4S 8468   2.848  12.322   5.436 -0.8006 -1.4652  0.0317
   62DOPC   C25 8469   2.759  12.477   5.329  0.3085  0.1071  0.5062
   62DOPC   H5R 8470   2.806  12.555   5.394 -1.3689  1.3431  0.3019
   62DOPC   H5S 8471   2.660  12.505   5.288  1.2716 -0.6192 -2.6192
   62DOPC   C26 8472   2.843  12.440   5.206 -0.6343 -0.4555  0.3570
   62DOPC   H6R 8473   2.769  12.390   5.140 -0.1448  0.8966 -1.3036
   62DOPC   H6S 8474   2.925  12.370   5.231 -0.8765 -1.1818 -0.7728
   62DOPC   C27 8475   2.887  12.567   5.132  0.2821 -0.3188  0.3485
   62DOPC   H7R 8476   2.996  12.581   5.120 -0.1286  1.9234 -1.2523
   62DOPC   H7S 8477   2.855  12.657   5.189 -0.8442 -0.3659 -0.1831
   62DOPC   C28 8478   2.825  12.580   4.990  0.4971 -0.4866  0.2802
   62DOPC   H8R 8479   2.715  12.587   5.004  0.5347 -1.6455  1.2619
   62DOPC   H8S 8480   2.849  12.481   4.945 -0.8505 -0.9057  0.4256
   62DOPC   C29 8481   2.875  12.696   4.906  0.1743  0.5011 -0.6744
   62DOPC   H9R 8482   2.839  12.796   4.933 -0.5829  0.0068  0.2218
   62DOPC  C210 8483   2.944  12.691   4.791 -0.1004 -0.1212  0.5228
   62DOPC  H10R 8484   2.978  12.783   4.741  0.0216 -0.2551  0.3609
   62DOPC  C211 8485   3.003  12.566   4.730  0.4069  0.3869 -0.0971
   62DOPC  H11R 8486   2.940  12.475   4.740  3.1551 -1.6517 -0.2600
   62DOPC  H11S 8487   3.096  12.535   4.782  1.1671  0.3170 -1.4633
   62DOPC  C212 8488   3.028  12.587   4.577 -0.0751 -0.1779  0.2633
   62DOPC  H12R 8489   3.043  12.491   4.524 -0.3583  0.7433 -1.5337
   62DOPC  H12S 8490   3.129  12.634   4.572 -0.3395  0.2582 -2.0386
   62DOPC  C213 8491   2.910  12.654   4.497 -0.3632  0.4992  0.0859
   62DOPC  H13R 8492   2.913  12.765   4.503  2.0431  0.5711 -1.1482
   62DOPC  H13S 8493   2.812  12.629   4.542  0.1453 -2.5322 -0.2525
   62DOPC  C214 8494   2.912  12.604   4.355 -0.0377 -0.3169  0.3377
   62DOPC  H14R 8495   2.817  12.638   4.308  1.0426  1.5232 -0.6317
   62DOPC  H14S 8496   2.915  12.493   4.349 -1.2920 -0.3465 -0.1602
   62DOPC  C215 8497   3.032  12.664   4.282  0.4060  0.6881 -0.2101
   62DOPC  H15R 8498   3.124  12.617   4.325  0.6156  0.7709 -0.5693
   62DOPC  H15S 8499   3.036  12.775   4.290 -0.0790  0.5895  3.5901
   62DOPC  C216 8500   3.033  12.618   4.134  1.1824 -0.4390 -0.5100
   62DOPC  H16R 8501   2.964  12.686   4.080  0.3352 -0.7038  0.2263
   62DOPC  H16S 8502   3.010  12.510   4.135 -2.1197  0.1443  1.9970
   62DOPC  C217 8503   3.167  12.639   4.067 -0.7228  0.2716 -0.0138
   62DOPC  H17R 8504   3.246  12.578   4.117 -0.3477  0.2263 -0.6470
   62DOPC  H17S 8505   3.203  12.744   4.072  2.0047 -0.6393  1.7050
   62DOPC  C218 8506   3.159  12.592   3.923  0.7054  0.1326  0.2278
   62DOPC  H18R 8507   3.263  12.572   3.888  0.0119 -0.5927 -1.5119
   62DOPC  H18S 8508   3.102  12.663   3.859  1.5521  0.2561 -0.4063
   62DOPC  H18T 8509   3.103  12.496   3.924 -0.3048  0.6835 -0.9418
   62DOPC   C33 8510   2.337  12.647   5.626  0.1218 -0.2226  0.8507
   62DOPC   H3X 8511   2.445  12.632   5.647  0.5547  1.1780 -0.2128
   62DOPC   H3Y 8512   2.304  12.685   5.725 -2.4964 -1.3788  0.4986
   62DOPC   C34 8513   2.324  12.758   5.518 -0.2207  0.7542  0.5326
   62DOPC   H4X 8514   2.397  12.839   5.543 -1.0200  1.2511  1.3207
   62DOPC   H4Y 8515   2.222  12.799   5.504 -0.1949  0.0668 -2.2488
   62DOPC   C35 8516   2.348  12.695   5.383 -0.6690  0.0800  0.1479
   62DOPC   H5X 8517   2.271  12.618   5.359  1.9646 -2.2959 -1.3448
   62DOPC   H5Y 8518   2.443  12.638   5.389 -1.1816 -0.7840  0.2914
   62DOPC   C36 8519   2.341  12.792   5.264 -0.2319  0.6504  0.3968
   62DOPC   H6X 8520   2.263  12.871   5.273  0.8013  1.7465 -0.0854
   62DOPC   H6Y 8521   2.432  12.856   5.261 -0.2828  0.6997 -1.6286
   62DOPC   C37 8522   2.336  12.722   5.130 -0.3933 -0.3168 -0.4193
   62DOPC   H7X 8523   2.424  12.655   5.117  1.6057  1.4464  2.7195
   62DOPC   H7Y 8524   2.245  12.658   5.125  0.4133 -1.5875  0.7010
   62DOPC   C38 8525   2.328  12.819   5.006 -0.0158 -0.1672  0.1458
   62DOPC   H8X 8526   2.332  12.757   4.914  0.8497 -1.9631  1.3527
   62DOPC   H8Y 8527   2.417  12.885   5.002  0.2295 -0.5353 -2.2527
   62DOPC   C39 8528   2.197  12.893   5.007  0.2259  0.1685  0.1741
   62DOPC   H9X 8529   2.110  12.849   5.059  0.3576 -1.4754 -0.9578
   62DOPC  C310 8530   2.175  13.016   4.958  0.7803  0.5416 -0.1147
   62DOPC  H10X 8531   2.076  13.062   4.966  0.8734  0.8898 -0.8682
   62DOPC  C311 8532   2.278  13.104   4.888 -0.1628 -0.3899  0.0503
   62DOPC  H11X 8533   2.323  13.055   4.799 -0.0425  0.1343 -0.1804
   62DOPC  H11Y 8534   2.353  13.140   4.963 -1.4514 -0.9553  1.6740
   62DOPC  C312 8535   2.223  13.243   4.842  0.8881 -0.0477 -0.7809
   62DOPC  H12X 8536   2.192  13.291   4.938 -1.2482  0.0345 -1.4658
   62DOPC  H12Y 8537   2.137  13.241   4.772  0.8800  1.5853 -0.8515
   62DOPC  C313 8538   2.332  13.328   4.775 -0.4864 -0.7879 -0.2619
   62DOPC  H13X 8539   2.306  13.435   4.783 -1.5896 -0.9166 -1.8029
   62DOPC  H13Y 8540   2.430  13.318   4.827 -0.5421 -1.0226 -0.2007
   62DOPC  C314 8541   2.358  13.292   4.625  0.0794 -0.3131 -0.1372
   62DOPC  H14X 8542   2.367  13.181   4.621 -1.0623 -0.4221  0.0706
   62DOPC  H14Y 8543   2.266  13.318   4.569 -0.4788  1.2164  1.4209
   62DOPC  C315 8544   2.469  13.369   4.557  0.5012  0.0609  0.0333
   62DOPC  H15X 8545   2.515  13.311   4.474 -1.7175 -1.4679 -0.2394
   62DOPC  H15Y 8546   2.550  13.375   4.633  0.7990  0.2639 -0.2992
   62DOPC  C316 8547   2.439  13.514   4.505 -0.5208 -0.0992 -0.4169
   62DOPC  H16X 8548   2.357  13.554   4.568  1.3362  1.3700  1.1896
   62DOPC  H16Y 8549   2.534  13.572   4.512  0.1967 -1.3834  1.9107
   62DOPC  C317 8550   2.381  13.530   4.359  0.5467 -1.3122 -0.5340
   62DOPC  H17X 8551   2.462  13.485   4.297  0.6102 -1.7296 -0.1552
   62DOPC  H17Y 8552   2.290  13.466   4.358 -0.8993  0.5282  2.0126
   62DOPC  C318 8553   2.337  13.672   4.324 -0.7084 -0.4739  0.0863
   62DOPC  H18X 8554   2.288  13.683   4.225 -1.1466  1.1252  0.4483
   62DOPC  H18Y 8555   2.262  13.702   4.400 -1.1512 -1.1229 -0.0850
   62DOPC  H18Z 8556   2.419  13.747   4.332 -0.0439 -1.3574  2.2551
   63DOPC     N 8557   2.630   5.492   6.204  0.4387 -0.0005  1.4217
   63DOPC   C12 8558   2.694   5.363   6.162 -0.1356  0.7325 -1.0057
   63DOPC  H12A 8559   2.644   5.324   6.074  0.2319 -4.1254  0.6045
   63DOPC  H12B 8560   2.681   5.292   6.242 -1.7226  1.1629 -0.8359
   63DOPC   C13 8561   2.688   5.524   6.342 -0.2437  0.1963  0.4306
   63DOPC  H13A 8562   2.647   5.610   6.393 -0.6575  1.3017 -1.6515
   63DOPC  H13B 8563   2.660   5.435   6.397 -1.3876 -0.6176 -1.3743
   63DOPC  H13C 8564   2.796   5.534   6.337 -0.1052 -1.3871 -0.4788
   63DOPC   C14 8565   2.480   5.495   6.213  0.7285  0.6562 -0.2011
   63DOPC  H14A 8566   2.435   5.469   6.119  1.1118  0.6449 -0.3861
   63DOPC  H14B 8567   2.440   5.425   6.284 -3.0358  0.3156 -2.4022
   63DOPC  H14C 8568   2.441   5.593   6.238 -0.9398 -0.2485  0.9149
   63DOPC   C15 8569   2.665   5.602   6.112 -0.2184  0.2292 -0.8112
   63DOPC  H15A 8570   2.771   5.595   6.096  0.1125  0.9809  0.8521
   63DOPC  H15B 8571   2.641   5.698   6.155  0.5790 -0.4708  1.3061
   63DOPC  H15C 8572   2.606   5.591   6.021 -0.0141  1.0286 -1.0429
   63DOPC   C11 8573   2.840   5.373   6.115  0.7505  0.3986  0.5863
   63DOPC  H11A 8574   2.867   5.265   6.125 -1.9435 -0.7210 -2.3995
   63DOPC  H11B 8575   2.829   5.405   6.009 -3.2298  0.0982  0.7860
   63DOPC     P 8576   3.077   5.414   6.223 -0.4032  0.0763 -0.0528
   63DOPC   O13 8577   3.096   5.274   6.272 -0.8042 -0.7548 -0.0625
   63DOPC   O14 8578   3.142   5.522   6.303  0.6926  0.0796  0.3118
   63DOPC   O12 8579   2.919   5.450   6.202  0.5723 -1.1479  0.2649
   63DOPC   O11 8580   3.125   5.426   6.071 -0.4955 -0.0423  0.0724
   63DOPC    C1 8581   3.223   5.505   6.015  0.8610  0.3896  0.3447
   63DOPC    HA 8582   3.322   5.454   6.027  0.6807  0.0293  0.3139
   63DOPC    HB 8583   3.232   5.607   6.058 -0.4231  1.2033 -1.2425
   63DOPC    C2 8584   3.189   5.530   5.860  0.3432  0.1152  0.2679
   63DOPC    HS 8585   3.082   5.556   5.850 -0.2316 -2.3356 -0.7581
   63DOPC   O21 8586   3.212   5.409   5.788 -0.6780 -0.5114 -0.2388
   63DOPC   C21 8587   3.108   5.351   5.739  0.2627  0.3502  0.0356
   63DOPC   O22 8588   2.991   5.398   5.740 -0.1369  0.0678  0.0890
   63DOPC   C22 8589   3.142   5.219   5.670 -0.1582  0.0810  0.3679
   63DOPC   H2R 8590   3.079   5.144   5.723 -0.2564  1.1822  1.9086
   63DOPC   H2S 8591   3.245   5.186   5.692 -0.4555 -1.0871  0.0806
   63DOPC    C3 8592   3.273   5.644   5.801 -0.1227  0.2703  0.4158
   63DOPC    HX 8593   3.373   5.595   5.799 -1.2444 -2.2434  1.1981
   63DOPC    HY 8594   3.251   5.732   5.864 -4.0883  0.3570 -0.8719
   63DOPC   O31 8595   3.235   5.664   5.662 -0.7565 -0.1326 -0.0717
   63DOPC   C31 8596   3.154   5.768   5.641  0.5025  0.4979  0.2800
   63DOPC   O32 8597   3.108   5.834   5.729  0.6346 -0.1539 -0.1938
   63DOPC   C32 8598   3.133   5.788   5.493 -0.2982 -0.8406 -0.1173
   63DOPC   H2X 8599   3.224   5.800   5.430 -1.0891  1.3113 -0.9562
   63DOPC   H2Y 8600   3.086   5.692   5.462 -1.3248 -0.7705  1.1334
   63DOPC   C23 8601   3.127   5.234   5.518 -0.0217 -0.2539 -0.2018
   63DOPC   H3R 8602   3.199   5.305   5.471 -0.1334  0.6883  0.9914
   63DOPC   H3S 8603   3.023   5.268   5.496  0.2670  0.8513  0.0889
   63DOPC   C24 8604   3.133   5.107   5.434 -0.0891  0.7079 -0.0357
   63DOPC   H4R 8605   3.043   5.044   5.448  0.4671 -0.0332  0.3296
   63DOPC   H4S 8606   3.224   5.054   5.471 -1.8687 -1.7678  1.1356
   63DOPC   C25 8607   3.151   5.135   5.284  0.3008 -0.2028  0.5002
   63DOPC   H5R 8608   3.232   5.210   5.268  0.7881 -0.5508  1.2873
   63DOPC   H5S 8609   3.052   5.169   5.246 -0.9312 -1.4908  2.3945
   63DOPC   C26 8610   3.181   5.011   5.201 -0.9112  0.2374 -0.1132
   63DOPC   H6R 8611   3.099   4.936   5.207 -0.8691 -0.0927 -2.5967
   63DOPC   H6S 8612   3.272   4.966   5.245 -2.5000 -1.7921  1.2939
   63DOPC   C27 8613   3.200   5.044   5.043 -0.3728  0.5030  0.1320
   63DOPC   H7R 8614   3.277   5.124   5.039  0.9613 -0.6051  1.7623
   63DOPC   H7S 8615   3.110   5.088   4.996  1.2564  1.2108 -2.5856
   63DOPC   C28 8616   3.246   4.915   4.965 -0.4743 -0.3706 -0.4226
   63DOPC   H8R 8617   3.329   4.871   5.023 -1.2687  0.0101  1.0485
   63DOPC   H8S 8618   3.299   4.937   4.870 -0.0807 -1.6179 -0.5116
   63DOPC   C29 8619   3.136   4.817   4.943 -0.0439 -0.2521  0.2025
   63DOPC   H9R 8620   3.065   4.810   5.027 -0.1979  0.4738  0.1407
   63DOPC  C210 8621   3.105   4.752   4.828  0.2640  0.4081  0.7322
   63DOPC  H10R 8622   3.032   4.670   4.825  0.6188  0.0967  0.5659
   63DOPC  C211 8623   3.179   4.768   4.699 -0.0998 -0.5815 -0.0235
   63DOPC  H11R 8624   3.223   4.870   4.694  0.5054 -0.7986  0.6207
   63DOPC  H11S 8625   3.103   4.758   4.620 -0.2357  0.6381 -0.0604
   63DOPC  C212 8626   3.296   4.673   4.664 -0.8048 -0.0510  0.4597
   63DOPC  H12R 8627   3.363   4.676   4.752  2.1957 -0.5038 -1.6441
   63DOPC  H12S 8628   3.355   4.707   4.576 -0.3762 -1.0898  0.3271
   63DOPC  C213 8629   3.250   4.532   4.614  0.1012 -0.0941  0.0126
   63DOPC  H13R 8630   3.195   4.492   4.701 -0.7535  0.6932 -0.1411
   63DOPC  H13S 8631   3.340   4.467   4.602  2.5654  2.4425  2.8821
   63DOPC  C214 8632   3.159   4.515   4.485  0.3140 -0.0577  0.3800
   63DOPC  H14R 8633   3.190   4.419   4.438  0.7472 -0.0847  0.7158
   63DOPC  H14S 8634   3.173   4.601   4.417 -0.8872 -0.7690 -0.8040
   63DOPC  C215 8635   3.014   4.496   4.527 -0.0674  0.4789 -0.1286
   63DOPC  H15R 8636   2.989   4.580   4.596  0.9425 -0.2381  1.1551
   63DOPC  H15S 8637   3.004   4.402   4.585  1.0054  0.7030  0.4501
   63DOPC  C216 8638   2.920   4.475   4.402  0.0691 -0.6298  0.2123
   63DOPC  H16R 8639   2.816   4.457   4.438 -0.5645 -0.1685 -1.3014
   63DOPC  H16S 8640   2.958   4.386   4.348 -0.9361 -1.3992  0.7457
   63DOPC  C217 8641   2.917   4.600   4.303 -0.1137 -0.4416  0.0903
   63DOPC  H17R 8642   3.018   4.637   4.276 -0.3923 -0.2033 -0.6357
   63DOPC  H17S 8643   2.856   4.679   4.352  0.3026  1.0151 -1.6609
   63DOPC  C218 8644   2.822   4.576   4.185 -0.0486  0.2140 -0.3732
   63DOPC  H18R 8645   2.873   4.500   4.123 -0.6151 -0.4875  0.0030
   63DOPC  H18S 8646   2.813   4.665   4.119  0.1678  1.5501  1.3203
   63DOPC  H18T 8647   2.719   4.553   4.219  0.3133  0.8573  1.2585
   63DOPC   C33 8648   3.053   5.909   5.458  1.3363  0.1788  0.0813
   63DOPC   H3X 8649   3.058   5.918   5.347  3.4419  1.7468  0.2407
   63DOPC   H3Y 8650   3.101   6.001   5.497  1.8127 -0.4376  0.9840
   63DOPC   C34 8651   2.902   5.910   5.511 -0.2360 -0.1674 -0.2971
   63DOPC   H4X 8652   2.852   6.000   5.468 -1.0500 -1.1211 -1.3823
   63DOPC   H4Y 8653   2.894   5.912   5.622  0.2246  2.2178 -0.2343
   63DOPC   C35 8654   2.809   5.787   5.469 -0.3423 -0.5370  0.1618
   63DOPC   H5X 8655   2.714   5.797   5.527 -0.1601  0.2495  0.3333
   63DOPC   H5Y 8656   2.866   5.694   5.491  0.1276 -0.6456 -1.4260
   63DOPC   C36 8657   2.766   5.792   5.321  0.6418  0.3667 -0.1309
   63DOPC   H6X 8658   2.754   5.898   5.291 -0.0570 -0.0775 -1.4903
   63DOPC   H6Y 8659   2.848   5.748   5.260  1.5070  2.0297 -0.2330
   63DOPC   C37 8660   2.643   5.706   5.294  0.5469  0.4000  0.3774
   63DOPC   H7X 8661   2.651   5.601   5.327 -0.5294  0.6598  1.5882
   63DOPC   H7Y 8662   2.556   5.751   5.349  0.4715  0.9235 -0.1573
   63DOPC   C38 8663   2.592   5.708   5.144  0.5738 -0.1482  0.1827
   63DOPC   H8X 8664   2.567   5.816   5.131 -1.6850 -0.7504 -1.0880
   63DOPC   H8Y 8665   2.496   5.653   5.137 -0.9567  2.0740  2.1602
   63DOPC   C39 8666   2.697   5.663   5.045  0.5253 -0.5295 -0.2271
   63DOPC   H9X 8667   2.759   5.578   5.080  0.8683 -0.1333  0.1522
   63DOPC  C310 8668   2.729   5.725   4.928  0.3289 -0.3367 -0.0044
   63DOPC  H10X 8669   2.808   5.679   4.867  0.7683  0.4364 -0.0375
   63DOPC  C311 8670   2.657   5.856   4.879 -0.4360 -0.2293  0.1173
   63DOPC  H11X 8671   2.698   5.886   4.781  1.9674  2.6224  1.8341
   63DOPC  H11Y 8672   2.702   5.937   4.940  0.2409 -0.8292  0.4248
   63DOPC  C312 8673   2.505   5.862   4.858 -0.2746 -0.4239 -0.1436
   63DOPC  H12X 8674   2.450   5.848   4.954  0.2152 -1.5385 -0.0077
   63DOPC  H12Y 8675   2.471   5.780   4.792 -1.8151  0.5695 -0.6092
   63DOPC  C313 8676   2.460   6.004   4.822 -0.1764 -0.5832 -0.4804
   63DOPC  H13X 8677   2.505   6.080   4.890  0.5508  0.4604 -2.0614
   63DOPC  H13Y 8678   2.501   6.038   4.724  1.0824 -0.8756 -0.0775
   63DOPC  C314 8679   2.310   6.031   4.829 -0.2347  0.7824 -0.3132
   63DOPC  H14X 8680   2.268   5.972   4.745 -1.4163  1.9070 -0.5392
   63DOPC  H14Y 8681   2.277   6.000   4.930 -1.1372  1.0114 -0.5240
   63DOPC  C315 8682   2.270   6.184   4.827  0.2423  0.4983 -0.0976
   63DOPC  H15X 8683   2.343   6.248   4.881 -1.2115  1.6723  0.5693
   63DOPC  H15Y 8684   2.177   6.197   4.886  1.5105 -1.1578  2.4505
   63DOPC  C316 8685   2.253   6.229   4.678  0.3426  0.7602 -0.1340
   63DOPC  H16X 8686   2.345   6.209   4.620  0.9772  2.3704  0.2615
   63DOPC  H16Y 8687   2.181   6.153   4.639  0.4683 -0.3611  1.6871
   63DOPC  C317 8688   2.217   6.374   4.663  0.1095 -0.2580 -0.1064
   63DOPC  H17X 8689   2.292   6.435   4.718  0.7629 -1.5467  0.4823
   63DOPC  H17Y 8690   2.129   6.416   4.716  0.3614  0.2671 -0.1005
   63DOPC  C318 8691   2.215   6.423   4.511  0.1539 -0.3263  0.5358
   63DOPC  H18X 8692   2.315   6.417   4.465 -0.7972 -2.1127 -1.4366
   63DOPC  H18Y 8693   2.182   6.529   4.502 -1.2142 -0.8632 -1.4418
   63DOPC  H18Z 8694   2.155   6.351   4.452  1.6235 -1.2583  0.1302
   64DOPC     N 8695  12.162   8.551   6.380  0.1574  0.4919  0.1977
   64DOPC   C12 8696  12.236   8.620   6.267  0.5021 -0.2747  0.7624
   64DOPC  H12A 8697  12.258   8.724   6.287 -1.3534  0.2175  0.4585
   64DOPC  H12B 8698  12.166   8.627   6.185 -0.9362 -1.4174  1.8344
   64DOPC   C13 8699  12.256   8.567   6.503 -0.7053 -0.5171 -0.0928
   64DOPC  H13A 8700  12.223   8.516   6.592 -2.4190  0.4552 -0.1230
   64DOPC  H13B 8701  12.349   8.524   6.469 -1.6599 -0.9005 -2.4580
   64DOPC  H13C 8702  12.277   8.670   6.528  3.2672 -1.1548 -0.2011
   64DOPC   C14 8703  12.137   8.403   6.353 -0.2346 -0.1671  0.2799
   64DOPC  H14A 8704  12.226   8.348   6.327 -0.3170 -0.1588 -0.0261
   64DOPC  H14B 8705  12.086   8.362   6.439  0.3311  0.8113  1.1059
   64DOPC  H14C 8706  12.069   8.388   6.270  0.4134  0.7949 -0.4486
   64DOPC   C15 8707  12.035   8.613   6.411  0.3551 -0.3992  0.3282
   64DOPC  H15A 8708  11.957   8.595   6.338  1.7258 -0.8134 -1.1056
   64DOPC  H15B 8709  12.031   8.719   6.394 -0.8336 -0.5809 -0.6399
   64DOPC  H15C 8710  11.997   8.594   6.510  1.1377  0.7881  0.8728
   64DOPC   C11 8711  12.358   8.550   6.210  1.1201 -0.2304 -0.2073
   64DOPC  H11A 8712  12.334   8.446   6.178  2.0071  0.0119 -1.7658
   64DOPC  H11B 8713  12.388   8.601   6.116  1.5476 -0.6443 -0.3005
   64DOPC     P 8714  12.558   8.423   6.323  0.0674 -0.1269 -0.4941
   64DOPC   O13 8715  12.534   8.321   6.218  0.6867  0.7593 -0.0448
   64DOPC   O14 8716  12.550   8.389   6.470 -0.3637 -0.1048  0.0526
   64DOPC   O12 8717  12.468   8.555   6.305  0.1641  0.3428 -0.3358
   64DOPC   O11 8718  12.706   8.467   6.288  0.5658 -0.0532 -0.5589
   64DOPC    C1 8719  12.745   8.605   6.266 -0.0232 -0.3775 -0.6017
   64DOPC    HA 8720  12.855   8.605   6.278 -0.0164  2.4123  0.2058
   64DOPC    HB 8721  12.700   8.682   6.332 -1.5047 -1.2783 -0.5326
   64DOPC    C2 8722  12.712   8.650   6.128  0.3356 -0.7743  0.0855
   64DOPC    HS 8723  12.601   8.658   6.120  0.5576  1.8171 -1.5833
   64DOPC   O21 8724  12.774   8.563   6.030 -0.0899 -0.4165  0.0872
   64DOPC   C21 8725  12.695   8.528   5.925 -1.1367  0.6113 -0.2685
   64DOPC   O22 8726  12.580   8.559   5.903 -0.3471 -0.2085 -0.1325
   64DOPC   C22 8727  12.780   8.437   5.831  0.1479  0.5435  0.3244
   64DOPC   H2R 8728  12.714   8.394   5.752  2.2015  0.4174 -1.4256
   64DOPC   H2S 8729  12.813   8.353   5.896  1.5844  0.0154 -1.0085
   64DOPC    C3 8730  12.770   8.791   6.095  0.0570 -0.1384 -0.2223
   64DOPC    HX 8731  12.880   8.775   6.090  0.2159  0.6836  0.3722
   64DOPC    HY 8732  12.757   8.859   6.183  0.7393 -1.0297  0.5875
   64DOPC   O31 8733  12.730   8.844   5.971 -0.0658 -0.2489 -0.2937
   64DOPC   C31 8734  12.605   8.879   5.951 -0.3682 -0.3313 -0.2566
   64DOPC   O32 8735  12.523   8.898   6.040 -0.3238 -0.0669 -0.4031
   64DOPC   C32 8736  12.576   8.889   5.801 -0.3763  0.6766 -0.1718
   64DOPC   H2X 8737  12.631   8.975   5.758 -0.7413 -0.0673 -2.2783
   64DOPC   H2Y 8738  12.612   8.795   5.754  2.5194  0.4946  2.1665
   64DOPC   C23 8739  12.899   8.515   5.769  0.6064  0.2665  0.8834
   64DOPC   H3R 8740  12.942   8.455   5.686 -2.1936 -0.0527 -0.4455
   64DOPC   H3S 8741  12.986   8.544   5.832  0.8011 -0.9283  1.1756
   64DOPC   C24 8742  12.837   8.638   5.690  0.0233  0.0276  0.4855
   64DOPC   H4R 8743  12.785   8.708   5.759 -0.9513 -0.3757  0.1800
   64DOPC   H4S 8744  12.750   8.598   5.634  0.9906  0.1894 -1.1962
   64DOPC   C25 8745  12.934   8.709   5.599 -0.0015 -0.0954  0.3352
   64DOPC   H5R 8746  13.022   8.744   5.657  0.2014  1.9596 -1.0895
   64DOPC   H5S 8747  12.881   8.803   5.571 -1.1836 -0.6178  0.7477
   64DOPC   C26 8748  12.976   8.639   5.469 -0.2468  0.4989 -0.4334
   64DOPC   H6R 8749  12.889   8.579   5.434  2.2332 -1.9352 -2.8749
   64DOPC   H6S 8750  13.053   8.566   5.501  1.3652  2.0886 -0.5599
   64DOPC   C27 8751  13.033   8.726   5.353  0.1482  0.1010  0.9105
   64DOPC   H7R 8752  13.136   8.761   5.377  0.8991  0.0417 -1.8581
   64DOPC   H7S 8753  12.964   8.813   5.352  0.0908  0.1465 -1.9984
   64DOPC   C28 8754  13.031   8.668   5.210  0.0825  0.1991 -0.0901
   64DOPC   H8R 8755  12.929   8.648   5.172  0.1761 -1.8081  0.6106
   64DOPC   H8S 8756  13.099   8.582   5.230  1.4069  0.9163 -1.2805
   64DOPC   C29 8757  13.102   8.749   5.102 -0.7818 -0.1019 -0.2822
   64DOPC   H9R 8758  13.098   8.858   5.115 -0.4060  0.0392 -1.2857
   64DOPC  C210 8759  13.181   8.715   4.999  0.3943 -0.4129  0.1072
   64DOPC  H10R 8760  13.207   8.791   4.924  0.0658 -0.6184 -0.2230
   64DOPC  C211 8761  13.202   8.572   4.956  0.6463 -0.0936 -0.2924
   64DOPC  H11R 8762  13.143   8.502   5.019  0.7712  0.2053  0.1677
   64DOPC  H11S 8763  13.306   8.532   4.955  1.1014  1.0596 -1.1379
   64DOPC  C212 8764  13.147   8.542   4.809 -0.7612  0.5029 -0.5937
   64DOPC  H12R 8765  13.210   8.604   4.742  0.3286  2.0217  1.7218
   64DOPC  H12S 8766  13.042   8.579   4.798 -0.0804  3.3745  1.3899
   64DOPC  C213 8767  13.169   8.397   4.766  0.2091  0.5512  0.6343
   64DOPC  H13R 8768  13.131   8.326   4.842  1.2204 -1.3044 -0.5383
   64DOPC  H13S 8769  13.275   8.363   4.759 -0.0303  0.1078 -1.5693
   64DOPC  C214 8770  13.105   8.351   4.630 -0.8703 -0.1396  0.5429
   64DOPC  H14R 8771  12.996   8.368   4.635 -0.9237 -0.5584  0.7873
   64DOPC  H14S 8772  13.127   8.243   4.616 -3.6715 -0.8944  1.4223
   64DOPC  C215 8773  13.163   8.430   4.507  0.2785  0.5580 -0.1571
   64DOPC  H15R 8774  13.144   8.539   4.519  0.8140  0.4444  2.4781
   64DOPC  H15S 8775  13.108   8.398   4.416  0.9756 -2.8720  0.4946
   64DOPC  C216 8776  13.314   8.422   4.473  0.5323  0.3707 -1.0763
   64DOPC  H16R 8777  13.331   8.320   4.431 -2.6598 -1.2204  1.0364
   64DOPC  H16S 8778  13.377   8.442   4.562 -0.6451 -0.6631  0.0371
   64DOPC  C217 8779  13.354   8.510   4.350  0.0619  0.6417  0.3900
   64DOPC  H17R 8780  13.334   8.616   4.374 -1.3177  0.4792  0.0162
   64DOPC  H17S 8781  13.288   8.481   4.266 -0.6205  0.6603  0.9104
   64DOPC  C218 8782  13.503   8.505   4.306  0.6214 -0.2641  0.0925
   64DOPC  H18R 8783  13.513   8.562   4.212  1.3612 -1.4759 -0.5812
   64DOPC  H18S 8784  13.521   8.398   4.284  0.2602  0.1246 -2.3259
   64DOPC  H18T 8785  13.569   8.544   4.386  0.9054 -2.1630  0.8500
   64DOPC   C33 8786  12.426   8.912   5.758  0.0023  0.1708  0.6532
   64DOPC   H3X 8787  12.395   8.995   5.824 -1.7170 -0.4035  0.6313
   64DOPC   H3Y 8788  12.356   8.835   5.798  0.6158  0.5504  2.5327
   64DOPC   C34 8789  12.408   8.940   5.604 -0.3900 -0.5657 -0.0265
   64DOPC   H4X 8790  12.477   9.025   5.580  0.2851 -0.5565  1.8105
   64DOPC   H4Y 8791  12.303   8.976   5.590 -0.2135 -0.3809 -0.9789
   64DOPC   C35 8792  12.445   8.809   5.532  0.6250  0.9973 -0.6840
   64DOPC   H5X 8793  12.386   8.724   5.573 -0.2056  1.5182 -0.7601
   64DOPC   H5Y 8794  12.553   8.792   5.547  0.1969 -1.5550  0.0611
   64DOPC   C36 8795  12.421   8.822   5.379  0.2615  0.5835  0.1097
   64DOPC   H6X 8796  12.457   8.725   5.339 -0.0152  1.1478 -1.5714
   64DOPC   H6Y 8797  12.314   8.838   5.355 -0.2171 -1.2784  0.7658
   64DOPC   C37 8798  12.502   8.928   5.308 -0.2066  0.7096  1.0338
   64DOPC   H7X 8799  12.476   8.916   5.201 -0.3205 -0.4421  1.1747
   64DOPC   H7Y 8800  12.481   9.030   5.347  1.3222  0.4846  2.5788
   64DOPC   C38 8801  12.651   8.918   5.312 -0.0461  0.2856  0.1692
   64DOPC   H8X 8802  12.689   8.814   5.318  0.0489  0.0820 -2.5449
   64DOPC   H8Y 8803  12.688   8.964   5.406  1.8520 -0.0978 -0.3390
   64DOPC   C39 8804  12.722   8.985   5.196  0.0931  0.9081  0.5648
   64DOPC   H9X 8805  12.796   9.058   5.232  1.2714 -0.9671  2.1698
   64DOPC  C310 8806  12.718   8.946   5.069 -0.4967  0.2604 -0.5369
   64DOPC  H10X 8807  12.788   8.999   5.001 -0.5249  1.8653  0.6288
   64DOPC  C311 8808  12.643   8.839   4.998  1.0436 -0.2940  0.2371
   64DOPC  H11X 8809  12.545   8.880   4.965  0.9347  1.1600  2.1676
   64DOPC  H11Y 8810  12.619   8.753   5.063  0.3563 -0.6503 -0.4818
   64DOPC  C312 8811  12.720   8.767   4.881 -0.5689 -0.2940 -0.6159
   64DOPC  H12X 8812  12.670   8.669   4.864 -0.0132 -0.7057  0.0760
   64DOPC  H12Y 8813  12.814   8.731   4.927 -0.4755  1.4747  0.6702
   64DOPC  C313 8814  12.734   8.839   4.756 -0.1496  0.5594  0.6874
   64DOPC  H13X 8815  12.633   8.862   4.715 -0.5451 -1.5584  0.3588
   64DOPC  H13Y 8816  12.797   8.930   4.766 -1.4719  1.9265 -2.0566
   64DOPC  C314 8817  12.824   8.766   4.655 -1.1169 -0.0297  0.1085
   64DOPC  H14X 8818  12.928   8.763   4.695 -0.4333  0.1027 -1.5602
   64DOPC  H14Y 8819  12.779   8.668   4.628  1.1441 -1.4593  1.2161
   64DOPC  C315 8820  12.830   8.857   4.533 -0.8621  0.9411  0.7029
   64DOPC  H15X 8821  12.842   8.957   4.580 -0.2846  1.3228 -0.2450
   64DOPC  H15Y 8822  12.738   8.848   4.472 -1.0933  3.9089  0.4679
   64DOPC  C316 8823  12.959   8.835   4.455  0.2213  0.1830 -0.1974
   64DOPC  H16X 8824  12.989   8.936   4.420 -0.7491  1.0606  1.3860
   64DOPC  H16Y 8825  13.041   8.800   4.521 -1.7417  0.9836  2.8717
   64DOPC  C317 8826  12.944   8.739   4.333 -0.4507 -0.0186  0.5740
   64DOPC  H17X 8827  12.926   8.637   4.373  0.0690 -0.7575 -1.0219
   64DOPC  H17Y 8828  12.857   8.766   4.270 -0.0645 -0.2183 -0.0445
   64DOPC  C318 8829  13.059   8.722   4.233 -0.3831 -0.3220  0.7938
   64DOPC  H18X 8830  13.158   8.715   4.284  0.7785 -0.6415 -1.3516
   64DOPC  H18Y 8831  13.049   8.629   4.172 -0.1611 -0.8122  1.4880
   64DOPC  H18Z 8832  13.064   8.810   4.166 -1.3901 -0.8436  0.0080
   65DOPC     N 8833   6.739   9.588   6.304 -1.0512  0.0591  0.1195
   65DOPC   C12 8834   6.666   9.686   6.226  0.0682 -0.0632  0.2514
   65DOPC  H12A 8835   6.734   9.730   6.155  0.7478  2.1293  2.1657
   65DOPC  H12B 8836   6.618   9.759   6.289 -0.3588 -0.3190  0.2351
   65DOPC   C13 8837   6.864   9.650   6.346 -0.5457 -0.6250 -0.2072
   65DOPC  H13A 8838   6.934   9.650   6.263  0.3194 -1.0780  0.5032
   65DOPC  H13B 8839   6.841   9.752   6.372 -0.5977 -0.1843 -1.8876
   65DOPC  H13C 8840   6.907   9.610   6.436  2.1824  1.6259 -0.3317
   65DOPC   C14 8841   6.780   9.466   6.228 -0.0427  0.0031  0.8706
   65DOPC  H14A 8842   6.690   9.415   6.197 -1.9494  2.3972  2.1171
   65DOPC  H14B 8843   6.833   9.492   6.138  0.9514 -0.1470  1.3989
   65DOPC  H14C 8844   6.847   9.398   6.280  0.6572 -0.0556 -0.0828
   65DOPC   C15 8845   6.651   9.540   6.416 -0.2242  0.1507 -0.1270
   65DOPC  H15A 8846   6.703   9.489   6.496  0.0262 -0.3246 -0.5892
   65DOPC  H15B 8847   6.576   9.475   6.374 -0.0384 -0.3493  0.3109
   65DOPC  H15C 8848   6.602   9.628   6.457  2.5068  1.9596 -0.4773
   65DOPC   C11 8849   6.554   9.624   6.136 -0.0338 -0.3700 -0.1804
   65DOPC  H11A 8850   6.514   9.725   6.112 -1.5340 -0.5334  1.3975
   65DOPC  H11B 8851   6.599   9.571   6.050 -0.3658 -0.3078 -0.3937
   65DOPC     P 8852   6.372   9.439   6.162 -0.2099 -0.1186 -0.3117
   65DOPC   O13 8853   6.265   9.416   6.257  0.2386  0.5142  0.1218
   65DOPC   O14 8854   6.465   9.325   6.132  0.4358 -0.3959 -0.5449
   65DOPC   O12 8855   6.457   9.549   6.217 -0.5285  0.7045  0.0014
   65DOPC   O11 8856   6.311   9.487   6.019 -0.1378  0.1466 -0.2812
   65DOPC    C1 8857   6.393   9.459   5.905  0.3699  0.2088 -0.2816
   65DOPC    HA 8858   6.497   9.426   5.923  0.9467  1.6066 -0.8538
   65DOPC    HB 8859   6.406   9.551   5.844  1.3870 -1.2898 -2.4592
   65DOPC    C2 8860   6.330   9.368   5.806  0.3295 -0.4412 -0.2467
   65DOPC    HS 8861   6.345   9.264   5.840 -0.4613 -0.4590  0.0740
   65DOPC   O21 8862   6.395   9.397   5.682  0.1655  0.1265 -0.4033
   65DOPC   C21 8863   6.496   9.321   5.638 -0.3249 -0.8490  0.3873
   65DOPC   O22 8864   6.544   9.229   5.701  0.3072 -0.2308 -0.0927
   65DOPC   C22 8865   6.554   9.381   5.514 -0.0215  0.2169  0.0052
   65DOPC   H2R 8866   6.660   9.404   5.539  0.2139  1.3944 -1.8823
   65DOPC   H2S 8867   6.516   9.482   5.486 -1.5234 -0.4865 -0.5581
   65DOPC    C3 8868   6.179   9.409   5.798  0.1216 -0.2177  0.3757
   65DOPC    HX 8869   6.176   9.520   5.796 -1.0090 -0.1727  2.2828
   65DOPC    HY 8870   6.125   9.379   5.890  0.4175  2.9771  1.7007
   65DOPC   O31 8871   6.123   9.349   5.679 -0.0687  0.2715  0.2879
   65DOPC   C31 8872   6.025   9.411   5.618 -0.2989  0.0912  0.8872
   65DOPC   O32 8873   5.972   9.510   5.663  0.2883 -0.2426  0.2004
   65DOPC   C32 8874   5.985   9.343   5.483 -0.2561 -1.0838 -0.4925
   65DOPC   H2X 8875   5.951   9.241   5.509 -0.9700 -0.6288  0.4215
   65DOPC   H2Y 8876   5.885   9.379   5.449 -0.7579  0.5131  2.3419
   65DOPC   C23 8877   6.554   9.282   5.397  0.5791 -0.0670 -0.2469
   65DOPC   H3R 8878   6.449   9.246   5.391  1.0563 -1.7164  0.6164
   65DOPC   H3S 8879   6.622   9.197   5.420 -0.6253 -0.6978  1.1129
   65DOPC   C24 8880   6.587   9.353   5.268  0.7864  0.1915 -0.1023
   65DOPC   H4R 8881   6.686   9.403   5.281  0.2250  0.9932  1.3876
   65DOPC   H4S 8882   6.528   9.446   5.251 -2.3187 -1.3779  1.4487
   65DOPC   C25 8883   6.610   9.264   5.146  0.2481  0.4840 -0.2786
   65DOPC   H5R 8884   6.523   9.196   5.136  0.2971  0.2721  0.6823
   65DOPC   H5S 8885   6.701   9.203   5.165 -0.1296  0.3757  1.3556
   65DOPC   C26 8886   6.616   9.345   5.010 -0.2528  0.6922  0.1376
   65DOPC   H6R 8887   6.676   9.439   5.007  0.2676  0.3383 -1.4891
   65DOPC   H6S 8888   6.513   9.385   4.997 -0.7511 -0.6399 -0.1163
   65DOPC   C27 8889   6.647   9.257   4.889  0.3102  0.2142 -1.3022
   65DOPC   H7R 8890   6.588   9.163   4.888  0.1785  0.2951 -1.0397
   65DOPC   H7S 8891   6.749   9.214   4.879  0.8660  1.6061 -1.9487
   65DOPC   C28 8892   6.601   9.328   4.762 -0.6701  0.6810 -0.1489
   65DOPC   H8R 8893   6.500   9.371   4.777 -0.4143  1.5193 -0.7991
   65DOPC   H8S 8894   6.585   9.250   4.684 -0.0759 -0.5192  0.8743
   65DOPC   C29 8895   6.701   9.431   4.709  0.1928 -0.2597 -0.5298
   65DOPC   H9R 8896   6.718   9.518   4.774  0.4957 -0.9039  0.2726
   65DOPC  C210 8897   6.760   9.419   4.590 -0.2099  0.9848  0.9051
   65DOPC  H10R 8898   6.824   9.501   4.554  1.2741 -0.5093 -0.0041
   65DOPC  C211 8899   6.742   9.305   4.489 -0.7182 -0.4953 -0.6427
   65DOPC  H11R 8900   6.645   9.307   4.434 -0.9986  0.0059 -0.1319
   65DOPC  H11S 8901   6.755   9.203   4.532 -0.7974  0.1433  0.9538
   65DOPC  C212 8902   6.861   9.325   4.387  0.0480 -0.2968  0.1298
   65DOPC  H12R 8903   6.868   9.244   4.312 -1.0189  1.8687 -2.4785
   65DOPC  H12S 8904   6.959   9.352   4.433  0.5241 -2.4325  0.4769
   65DOPC  C213 8905   6.841   9.439   4.279  0.2709  0.0882  0.1914
   65DOPC  H13R 8906   6.915   9.519   4.302  1.7980 -1.5296  1.1366
   65DOPC  H13S 8907   6.740   9.481   4.302  0.1489  0.1768 -0.4822
   65DOPC  C214 8908   6.841   9.382   4.137  0.3959  0.2028  0.3955
   65DOPC  H14R 8909   6.762   9.304   4.142 -1.0837  1.5285 -1.1764
   65DOPC  H14S 8910   6.938   9.334   4.112  0.8040  1.6085 -0.8406
   65DOPC  C215 8911   6.773   9.474   4.033  0.2084 -0.3211  0.6118
   65DOPC  H15R 8912   6.777   9.416   3.939  3.1885  1.1257 -0.2792
   65DOPC  H15S 8913   6.835   9.565   4.019 -0.5653 -0.0780 -1.6112
   65DOPC  C216 8914   6.626   9.527   4.066  0.4208  0.5127 -0.3915
   65DOPC  H16R 8915   6.623   9.598   4.151 -0.7774  1.1433 -0.9360
   65DOPC  H16S 8916   6.570   9.438   4.102 -0.0325  1.6173  1.7539
   65DOPC  C217 8917   6.554   9.566   3.942 -1.0490 -0.1131 -0.6034
   65DOPC  H17R 8918   6.543   9.474   3.881 -1.7881 -0.7988  0.5255
   65DOPC  H17S 8919   6.610   9.637   3.876 -3.0123  2.2304  0.1093
   65DOPC  C218 8920   6.424   9.629   3.962 -0.0848  0.4243 -0.8319
   65DOPC  H18R 8921   6.353   9.560   4.014 -1.5130  1.4882 -1.3080
   65DOPC  H18S 8922   6.379   9.670   3.869  1.2302  0.8481 -1.3084
   65DOPC  H18T 8923   6.444   9.717   4.027  1.9766 -0.2087 -0.5225
   65DOPC   C33 8924   6.091   9.356   5.372  0.2261  0.8632  0.6234
   65DOPC   H3X 8925   6.186   9.300   5.390  0.5203  0.9229 -0.6487
   65DOPC   H3Y 8926   6.126   9.460   5.357  5.1534 -0.5585  0.1089
   65DOPC   C34 8927   6.028   9.297   5.244  0.0379 -0.7997  0.3389
   65DOPC   H4X 8928   5.926   9.332   5.217 -0.5505 -1.0276  2.1434
   65DOPC   H4Y 8929   6.012   9.189   5.258  2.0574 -1.1925 -0.0652
   65DOPC   C35 8930   6.119   9.312   5.122  0.7744 -0.5166 -0.8262
   65DOPC   H5X 8931   6.222   9.277   5.143  1.3025  0.1146 -2.1845
   65DOPC   H5Y 8932   6.136   9.420   5.101 -1.7377 -0.2080 -1.6226
   65DOPC   C36 8933   6.069   9.247   4.990  0.7640  0.8507 -0.6284
   65DOPC   H6X 8934   6.062   9.136   4.994  0.3942  0.8741 -0.6410
   65DOPC   H6Y 8935   5.972   9.286   4.953  1.6509  1.1898 -2.7728
   65DOPC   C37 8936   6.171   9.277   4.882  0.2101 -0.5445 -0.2658
   65DOPC   H7X 8937   6.214   9.375   4.911  0.9815 -0.3222 -2.0456
   65DOPC   H7Y 8938   6.254   9.203   4.887  2.5604  1.6971 -2.5747
   65DOPC   C38 8939   6.127   9.288   4.741  0.3067  0.7230  0.3063
   65DOPC   H8X 8940   6.079   9.385   4.714  0.6783  0.8603  0.1260
   65DOPC   H8Y 8941   6.053   9.205   4.733 -0.6405  1.2447  2.7534
   65DOPC   C39 8942   6.234   9.265   4.635 -0.2876  0.5299 -0.3934
   65DOPC   H9X 8943   6.336   9.300   4.657 -0.4069  1.9341 -1.8814
   65DOPC  C310 8944   6.199   9.236   4.512 -0.5380 -0.3527  0.4340
   65DOPC  H10X 8945   6.275   9.228   4.433 -1.5344 -1.1729 -0.4699
   65DOPC  C311 8946   6.063   9.206   4.468  0.6601  0.5402  0.0079
   65DOPC  H11X 8947   5.991   9.185   4.549  0.3892 -0.2440 -0.4180
   65DOPC  H11Y 8948   6.064   9.114   4.405 -3.7070 -1.3412  2.2656
   65DOPC  C312 8949   5.996   9.326   4.398 -0.0383  0.0974  0.2374
   65DOPC  H12X 8950   5.990   9.388   4.490  2.8414 -1.6909  1.7923
   65DOPC  H12Y 8951   5.896   9.289   4.365 -0.4893  1.6922 -0.2870
   65DOPC  C313 8952   6.078   9.408   4.300 -0.5744  0.2470  0.2632
   65DOPC  H13X 8953   6.168   9.456   4.343 -0.0550 -1.7151  1.4976
   65DOPC  H13Y 8954   6.110   9.335   4.223 -2.0054 -0.6060  0.4398
   65DOPC  C314 8955   5.993   9.529   4.248 -0.2654  0.0555 -0.1603
   65DOPC  H14X 8956   5.919   9.485   4.178 -1.4004 -0.5300  1.3770
   65DOPC  H14Y 8957   5.929   9.573   4.327 -0.0353 -0.2701  0.2107
   65DOPC  C315 8958   6.080   9.642   4.174  0.0284 -0.2230  0.3151
   65DOPC  H15X 8959   6.129   9.598   4.085  0.4351  0.7375  0.0576
   65DOPC  H15Y 8960   6.158   9.674   4.246  1.8411  0.4847 -1.8673
   65DOPC  C316 8961   6.002   9.767   4.131 -0.2204 -0.5438  0.2199
   65DOPC  H16X 8962   5.915   9.741   4.067  1.6512 -3.3018 -1.4294
   65DOPC  H16Y 8963   5.972   9.817   4.226 -1.1671  0.5312 -0.6084
   65DOPC  C317 8964   6.102   9.854   4.059 -0.7086  0.6102  0.4471
   65DOPC  H17X 8965   6.178   9.791   4.009 -0.3343  1.2297  0.2267
   65DOPC  H17Y 8966   6.037   9.890   3.977  0.4353  0.6514 -0.4764
   65DOPC  C318 8967   6.162   9.979   4.128 -0.3778  0.8978 -0.7967
   65DOPC  H18X 8968   6.228   9.940   4.208  0.4249  1.0577 -1.3715
   65DOPC  H18Y 8969   6.227  10.039   4.061  0.8472  0.1822 -0.2672
   65DOPC  H18Z 8970   6.081  10.041   4.173 -1.2108  0.1463 -1.2212
   66DOPC     N 8971   0.350   0.081   6.284 -1.1315 -0.6776  0.9116
   66DOPC   C12 8972   0.459  -0.030   6.284  0.3151 -0.0499 -0.2056
   66DOPC  H12A 8973   0.554   0.020   6.276  0.8514 -1.1214 -0.7918
   66DOPC  H12B 8974   0.456  -0.077   6.187  1.0385  0.6818 -0.5894
   66DOPC   C13 8975   0.209   0.043   6.316 -0.4551  0.0204  0.2693
   66DOPC  H13A 8976   0.222  -0.014   6.407  1.5997 -0.2134 -0.1260
   66DOPC  H13B 8977   0.155   0.135   6.331 -2.1933 -0.5723 -1.8338
   66DOPC  H13C 8978   0.154  -0.016   6.245  0.7331 -1.1851  0.3138
   66DOPC   C14 8979   0.344   0.154   6.158  0.2303  0.1381  0.2614
   66DOPC  H14A 8980   0.425   0.219   6.129 -0.8692  0.5864 -2.0516
   66DOPC  H14B 8981   0.334   0.081   6.079  4.7917  0.4499 -0.8526
   66DOPC  H14C 8982   0.251   0.209   6.155 -0.3633 -0.7926  0.9227
   66DOPC   C15 8983   0.387   0.188   6.386  0.0872  1.3718 -0.1200
   66DOPC  H15A 8984   0.372   0.145   6.485 -1.2905  1.0624 -0.4360
   66DOPC  H15B 8985   0.319   0.272   6.387  1.2185  2.3080  0.3252
   66DOPC  H15C 8986   0.487   0.226   6.376  0.7159 -0.0609  0.4364
   66DOPC   C11 8987   0.456  -0.122   6.403  0.1343 -0.0857  0.1000
   66DOPC  H11A 8988   0.550  -0.178   6.422 -1.1940 -1.7106  2.4382
   66DOPC  H11B 8989   0.458  -0.055   6.492 -0.7921  1.4370 -0.9689
   66DOPC     P 8990   0.362  -0.360   6.330 -0.3898  0.1301  0.1931
   66DOPC   O13 8991   0.226  -0.410   6.312 -0.6816 -0.4851  0.1518
   66DOPC   O14 8992   0.447  -0.446   6.417 -0.4531  0.1395  0.3905
   66DOPC   O12 8993   0.349  -0.218   6.403 -0.0826  0.3154  0.1009
   66DOPC   O11 8994   0.430  -0.329   6.192 -0.2775  0.2815  0.3636
   66DOPC    C1 8995   0.348  -0.296   6.082  0.0741 -0.7775  0.3645
   66DOPC    HA 8996   0.269  -0.222   6.107  0.5620 -1.2153  3.6625
   66DOPC    HB 8997   0.294  -0.390   6.055 -1.5608  0.1559  0.2416
   66DOPC    C2 8998   0.439  -0.248   5.966  0.1981 -0.1251  0.3394
   66DOPC    HS 8999   0.504  -0.334   5.941 -0.6877 -0.1538 -2.1575
   66DOPC   O21 9000   0.510  -0.130   6.015 -0.0909  0.6498  0.5420
   66DOPC   C21 9001   0.620  -0.121   5.951 -0.1861 -0.0349 -0.4029
   66DOPC   O22 9002   0.672  -0.194   5.868  0.0730 -0.0519  0.3303
   66DOPC   C22 9003   0.676   0.020   6.000 -0.0103  1.0565  0.3681
   66DOPC   H2R 9004   0.784   0.006   6.021  0.1235  2.2126  0.5551
   66DOPC   H2S 9005   0.633   0.056   6.096 -2.1999 -0.7282  0.1164
   66DOPC    C3 9006   0.357  -0.224   5.831 -0.5252  0.4816  0.5212
   66DOPC    HX 9007   0.287  -0.141   5.857 -1.2138 -0.7308  2.8235
   66DOPC    HY 9008   0.297  -0.317   5.819  0.4801 -0.1792  0.5040
   66DOPC   O31 9009   0.431  -0.197   5.713 -0.2559  0.0542 -0.0168
   66DOPC   C31 9010   0.495  -0.292   5.650 -0.2330  0.6306 -0.0829
   66DOPC   O32 9011   0.491  -0.410   5.672  0.2660 -0.5665 -0.5533
   66DOPC   C32 9012   0.584  -0.230   5.548 -0.1266  0.4931 -0.4400
   66DOPC   H2X 9013   0.536  -0.158   5.478 -0.9816  0.0764 -0.2992
   66DOPC   H2Y 9014   0.665  -0.179   5.605 -0.0873  0.5078 -0.5101
   66DOPC   C23 9015   0.640   0.128   5.891 -0.4331  0.0500 -0.3614
   66DOPC   H3R 9016   0.660   0.230   5.930 -1.4058  0.9200 -2.0016
   66DOPC   H3S 9017   0.532   0.136   5.863 -0.1872  2.0589 -0.9323
   66DOPC   C24 9018   0.711   0.112   5.766  0.1897  0.9838 -0.6587
   66DOPC   H4R 9019   0.693   0.201   5.703  0.1502  1.2714 -0.2423
   66DOPC   H4S 9020   0.659   0.038   5.701  0.5763  1.2019 -1.2261
   66DOPC   C25 9021   0.865   0.082   5.778 -0.1637 -0.7820 -0.9084
   66DOPC   H5R 9022   0.881  -0.013   5.833 -0.7222  0.5584  1.7085
   66DOPC   H5S 9023   0.913   0.162   5.838 -0.0708 -0.3811 -1.5151
   66DOPC   C26 9024   0.931   0.069   5.631  0.5968  0.3126  0.0288
   66DOPC   H6R 9025   0.883   0.145   5.565 -1.1123 -0.3070  0.5026
   66DOPC   H6S 9026   0.919  -0.032   5.586 -0.1212  0.0225  0.8623
   66DOPC   C27 9027   1.081   0.114   5.627 -0.0990  0.4098 -0.4750
   66DOPC   H7R 9028   1.147   0.062   5.700 -0.3470  1.1648  0.3093
   66DOPC   H7S 9029   1.096   0.217   5.666 -0.1917  0.5677 -0.8589
   66DOPC   C28 9030   1.150   0.117   5.491 -0.1829 -0.9163 -0.3556
   66DOPC   H8R 9031   1.097   0.197   5.435 -0.5988 -1.4827 -0.7741
   66DOPC   H8S 9032   1.115   0.027   5.436  0.2958 -1.7257  0.6155
   66DOPC   C29 9033   1.302   0.142   5.504 -0.0227 -0.3771  0.0918
   66DOPC   H9R 9034   1.351   0.067   5.568  1.6530  0.0487 -0.6497
   66DOPC  C210 9035   1.378   0.216   5.423  0.3856 -0.6251 -0.2822
   66DOPC  H10R 9036   1.488   0.216   5.435  0.1827  0.8057  2.4412
   66DOPC  C211 9037   1.325   0.317   5.324  0.3549  0.1484 -0.1557
   66DOPC  H11R 9038   1.402   0.394   5.304  1.6383 -1.4547 -1.6545
   66DOPC  H11S 9039   1.242   0.375   5.370 -0.1163 -1.1430  0.6826
   66DOPC  C212 9040   1.277   0.250   5.187  0.4430  0.3709 -0.2788
   66DOPC  H12R 9041   1.222   0.160   5.220 -0.9313  0.6170 -1.8056
   66DOPC  H12S 9042   1.368   0.212   5.136  0.9750  0.2690  0.7194
   66DOPC  C213 9043   1.172   0.333   5.104 -0.1469  0.2516  0.4627
   66DOPC  H13R 9044   1.100   0.377   5.176  1.0648  3.4222 -0.0679
   66DOPC  H13S 9045   1.115   0.265   5.037  0.1499 -0.2847  0.7454
   66DOPC  C214 9046   1.233   0.448   5.025 -0.6342 -0.7485 -0.4527
   66DOPC  H14R 9047   1.307   0.512   5.078  0.9408 -2.3469 -0.6497
   66DOPC  H14S 9048   1.148   0.514   4.996 -1.0914 -1.4458 -0.7341
   66DOPC  C215 9049   1.291   0.402   4.891  0.3081  0.5796  0.4186
   66DOPC  H15R 9050   1.232   0.318   4.850 -0.4400  1.2426  0.1250
   66DOPC  H15S 9051   1.383   0.345   4.919  0.4098  0.1323 -0.7625
   66DOPC  C216 9052   1.315   0.505   4.784  0.4191  0.2431 -0.6327
   66DOPC  H16R 9053   1.376   0.587   4.828 -0.5028  0.2721  0.6059
   66DOPC  H16S 9054   1.214   0.551   4.778 -0.3400 -1.0390  1.4101
   66DOPC  C217 9055   1.381   0.460   4.651  0.0426 -0.4516 -0.3393
   66DOPC  H17R 9056   1.434   0.364   4.665 -2.3324 -1.5703  1.9430
   66DOPC  H17S 9057   1.464   0.528   4.621  2.0779 -2.5557  0.2434
   66DOPC  C218 9058   1.280   0.433   4.541 -0.6002  0.2674 -0.6689
   66DOPC  H18R 9059   1.196   0.505   4.538  0.3156  1.4319  0.7384
   66DOPC  H18S 9060   1.234   0.336   4.571 -0.6328  0.4719 -0.0539
   66DOPC  H18T 9061   1.334   0.425   4.444  0.4481  1.1502 -0.1775
   66DOPC   C33 9062   0.651  -0.335   5.467  0.4838 -0.2630  0.2314
   66DOPC   H3X 9063   0.580  -0.389   5.401 -3.0354  3.6253  0.4366
   66DOPC   H3Y 9064   0.693  -0.420   5.526  1.2071  0.2308  0.4448
   66DOPC   C34 9065   0.778  -0.285   5.388  0.1106  0.0418 -0.0177
   66DOPC   H4X 9066   0.853  -0.252   5.463  0.2874  0.6320 -0.4467
   66DOPC   H4Y 9067   0.750  -0.200   5.323  1.0502  0.8550  0.6073
   66DOPC   C35 9068   0.855  -0.389   5.303  0.0654  1.1242 -0.0952
   66DOPC   H5X 9069   0.913  -0.456   5.370 -1.4812 -0.9973 -0.7737
   66DOPC   H5Y 9070   0.925  -0.338   5.233 -0.0494  0.9347 -0.3515
   66DOPC   C36 9071   0.759  -0.475   5.211 -0.9068 -0.5611  0.4052
   66DOPC   H6X 9072   0.693  -0.547   5.264 -1.4023 -1.6909 -1.6422
   66DOPC   H6Y 9073   0.699  -0.399   5.155 -0.2942  0.8738  1.6245
   66DOPC   C37 9074   0.834  -0.559   5.112  0.1092 -0.0660  0.2490
   66DOPC   H7X 9075   0.933  -0.518   5.082  1.7714 -2.6289  1.8697
   66DOPC   H7Y 9076   0.853  -0.655   5.164 -1.6573  0.2791  1.6501
   66DOPC   C38 9077   0.748  -0.596   4.987 -0.0341 -0.4039 -0.5019
   66DOPC   H8X 9078   0.712  -0.499   4.947  2.2947  1.4307  1.5289
   66DOPC   H8Y 9079   0.654  -0.644   5.022  0.9453 -2.0228  0.0188
   66DOPC   C39 9080   0.806  -0.684   4.880  0.2038 -0.3790  0.1509
   66DOPC   H9X 9081   0.901  -0.732   4.906  0.2426 -0.1904  0.3615
   66DOPC  C310 9082   0.759  -0.677   4.749  0.2226  0.7761  0.2410
   66DOPC  H10X 9083   0.795  -0.745   4.671  1.0146  1.1948  0.2239
   66DOPC  C311 9084   0.632  -0.611   4.712 -0.5884 -0.8880 -0.6811
   66DOPC  H11X 9085   0.557  -0.604   4.794  2.6740 -0.0763  2.4876
   66DOPC  H11Y 9086   0.589  -0.667   4.626 -0.1643 -1.4022 -0.5612
   66DOPC  C312 9087   0.672  -0.465   4.653  0.2041 -0.3432 -0.7795
   66DOPC  H12X 9088   0.735  -0.476   4.563  2.9409 -1.0790  1.0890
   66DOPC  H12Y 9089   0.734  -0.420   4.734 -0.7686  0.4994 -0.4863
   66DOPC  C313 9090   0.549  -0.375   4.620  0.0385  0.0234 -0.3584
   66DOPC  H13X 9091   0.475  -0.442   4.572  1.4906 -1.0051 -1.2494
   66DOPC  H13Y 9092   0.493  -0.348   4.712 -0.3525  0.8118 -0.8172
   66DOPC  C314 9093   0.588  -0.260   4.531 -0.0858  0.2623  0.5415
   66DOPC  H14X 9094   0.522  -0.171   4.542 -0.9142 -0.4080  1.1068
   66DOPC  H14Y 9095   0.689  -0.227   4.565  0.5055 -1.5355  0.6242
   66DOPC  C315 9096   0.597  -0.288   4.377 -0.4724  0.4183 -0.1850
   66DOPC  H15X 9097   0.496  -0.317   4.341  0.9290 -2.6621 -2.1517
   66DOPC  H15Y 9098   0.671  -0.368   4.353  0.9644  1.9279 -1.0407
   66DOPC  C316 9099   0.647  -0.159   4.299  0.6567  0.8689 -0.1589
   66DOPC  H16X 9100   0.674  -0.186   4.195 -1.0328  2.8871 -1.2078
   66DOPC  H16Y 9101   0.554  -0.100   4.282  0.0287 -0.2990 -0.8977
   66DOPC  C317 9102   0.766  -0.078   4.350  0.3861 -0.2270  0.2763
   66DOPC  H17X 9103   0.740  -0.027   4.445 -2.4682 -1.6213  0.3526
   66DOPC  H17Y 9104   0.841  -0.157   4.375  0.1641 -0.5983 -0.2072
   66DOPC  C318 9105   0.820   0.015   4.241  0.1911  0.0019 -0.2133
   66DOPC  H18X 9106   0.891   0.087   4.288  1.6236 -1.6578  0.2341
   66DOPC  H18Y 9107   0.890  -0.037   4.173  3.0396  2.0573  0.9745
   66DOPC  H18Z 9108   0.734   0.074   4.200 -0.7183  0.5129  2.2603
   67DOPC     N 9109   4.417   4.088   6.587  0.5644 -0.2220  0.0616
   67DOPC   C12 9110   4.435   4.148   6.446  0.6078 -0.2215  0.1334
   67DOPC  H12A 9111   4.474   4.248   6.448  3.5774 -1.2396 -1.4505
   67DOPC  H12B 9112   4.332   4.156   6.412  1.3114 -0.7013 -2.3045
   67DOPC   C13 9113   4.330   4.182   6.662  1.1424  0.2080 -0.0393
   67DOPC  H13A 9114   4.374   4.281   6.665  0.7204  0.3734  0.8830
   67DOPC  H13B 9115   4.236   4.193   6.611  0.9559 -1.2617 -0.0367
   67DOPC  H13C 9116   4.323   4.144   6.762 -1.7406 -1.2991 -0.7228
   67DOPC   C14 9117   4.546   4.087   6.664  0.9963 -0.2918  0.3780
   67DOPC  H14A 9118   4.590   4.184   6.683  0.2259 -0.0022  0.7086
   67DOPC  H14B 9119   4.538   4.049   6.765  1.0689 -0.8755  0.1700
   67DOPC  H14C 9120   4.621   4.037   6.604  0.1701 -0.1896 -0.7818
   67DOPC   C15 9121   4.351   3.957   6.586 -0.2804  0.5376 -0.3188
   67DOPC  H15A 9122   4.262   3.951   6.526 -0.1885  1.2151 -0.5330
   67DOPC  H15B 9123   4.328   3.935   6.689 -1.6869 -0.3639 -0.8001
   67DOPC  H15C 9124   4.419   3.879   6.554 -1.1061 -0.4204  0.1900
   67DOPC   C11 9125   4.513   4.066   6.354 -0.2919  0.6752  0.3259
   67DOPC  H11A 9126   4.444   3.998   6.299  0.1323  0.5142 -0.0153
   67DOPC  H11B 9127   4.553   4.127   6.270  0.4482  2.1065  1.6685
   67DOPC     P 9128   4.665   3.852   6.371  0.5956 -0.0250  0.3877
   67DOPC   O13 9129   4.547   3.765   6.383  0.7300 -0.0915 -0.5441
   67DOPC   O14 9130   4.782   3.807   6.436 -0.0378 -0.0434  0.6583
   67DOPC   O12 9131   4.632   4.004   6.401  0.2379  0.0761 -0.0984
   67DOPC   O11 9132   4.701   3.858   6.218  0.6451 -0.1062  0.1716
   67DOPC    C1 9133   4.817   3.914   6.165  0.2183  0.4194 -1.0488
   67DOPC    HA 9134   4.896   3.836   6.164 -0.7944 -0.7394  1.6697
   67DOPC    HB 9135   4.864   3.993   6.228 -1.7263  2.3236 -1.8901
   67DOPC    C2 9136   4.780   3.974   6.032 -0.6146 -0.0794 -0.6221
   67DOPC    HS 9137   4.700   4.051   6.040 -1.6751 -0.9737 -1.9960
   67DOPC   O21 9138   4.736   3.864   5.944 -0.6221 -0.6117 -0.0590
   67DOPC   C21 9139   4.646   3.897   5.851 -0.5463 -0.4465  0.0502
   67DOPC   O22 9140   4.603   4.013   5.842 -0.1929  0.2926  0.5806
   67DOPC   C22 9141   4.607   3.772   5.768  0.4492 -0.1423  0.4682
   67DOPC   H2R 9142   4.570   3.689   5.832 -0.4646  0.4554  0.7364
   67DOPC   H2S 9143   4.698   3.732   5.718 -0.8141 -4.0764  0.9253
   67DOPC    C3 9144   4.904   4.045   5.986 -0.2579  0.8604 -0.2862
   67DOPC    HX 9145   4.991   3.977   5.990 -0.5083  0.4683 -1.1888
   67DOPC    HY 9146   4.929   4.123   6.061  0.1082 -0.1862  0.6901
   67DOPC   O31 9147   4.886   4.108   5.856 -0.4105  0.0200 -0.0246
   67DOPC   C31 9148   4.990   4.177   5.823  0.8437  0.6261  0.5743
   67DOPC   O32 9149   5.096   4.183   5.886  0.5753  0.7417  0.0375
   67DOPC   C32 9150   4.969   4.237   5.684  0.2663 -0.2168  0.8675
   67DOPC   H2X 9151   4.963   4.149   5.617 -2.6149 -1.6491  2.7921
   67DOPC   H2Y 9152   4.871   4.289   5.672  0.9801  0.8413 -0.6153
   67DOPC   C23 9153   4.504   3.806   5.654 -0.1468 -0.4255 -0.1506
   67DOPC   H3R 9154   4.566   3.863   5.581  3.5453  0.0855  3.0963
   67DOPC   H3S 9155   4.431   3.879   5.696  2.1317  1.2625  1.0582
   67DOPC   C24 9156   4.443   3.689   5.589 -0.1009  0.4383  0.0739
   67DOPC   H4R 9157   4.439   3.603   5.659  0.4614  1.1650  1.0343
   67DOPC   H4S 9158   4.506   3.647   5.508 -0.4075 -2.4657  1.2284
   67DOPC   C25 9159   4.299   3.704   5.538  0.7567  0.2131 -1.0444
   67DOPC   H5R 9160   4.241   3.734   5.629  3.6544 -1.9119  1.7197
   67DOPC   H5S 9161   4.257   3.609   5.500  0.8170 -0.7552  1.1650
   67DOPC   C26 9162   4.288   3.811   5.426  0.5083  0.4735  1.5980
   67DOPC   H6R 9163   4.343   3.903   5.457  1.3368 -0.0565  1.7070
   67DOPC   H6S 9164   4.180   3.836   5.415  0.2816 -1.6101 -2.3067
   67DOPC   C27 9165   4.339   3.738   5.297  0.3371 -0.2704 -0.3093
   67DOPC   H7R 9166   4.275   3.650   5.278 -0.9571  0.4024  0.7595
   67DOPC   H7S 9167   4.439   3.693   5.315  0.2922 -0.5816 -0.8183
   67DOPC   C28 9168   4.344   3.832   5.179 -0.1668 -0.7236  0.3878
   67DOPC   H8R 9169   4.421   3.795   5.108  0.4651 -0.2189  0.8011
   67DOPC   H8S 9170   4.382   3.926   5.226 -0.4737  0.0654 -0.8862
   67DOPC   C29 9171   4.200   3.844   5.119 -1.3730 -0.4987 -0.0259
   67DOPC   H9R 9172   4.124   3.877   5.191 -1.2328 -0.4500  0.1035
   67DOPC  C210 9173   4.165   3.807   4.995  0.1397 -0.6332  0.7315
   67DOPC  H10R 9174   4.066   3.836   4.957  0.2457 -0.7708  0.3401
   67DOPC  C211 9175   4.261   3.762   4.887 -0.5189 -0.2568  0.2640
   67DOPC  H11R 9176   4.224   3.663   4.852 -0.3700 -0.2406  0.0629
   67DOPC  H11S 9177   4.359   3.739   4.934 -0.1339  0.7081 -0.0559
   67DOPC  C212 9178   4.281   3.852   4.773  0.1655 -0.2677 -0.0916
   67DOPC  H12R 9179   4.377   3.833   4.721  0.9263  1.3565  0.6276
   67DOPC  H12S 9180   4.288   3.960   4.799  1.1421 -0.4160  0.2910
   67DOPC  C213 9181   4.168   3.850   4.669 -0.3933  0.1754 -0.1670
   67DOPC  H13R 9182   4.159   3.948   4.618  1.4254  0.0088 -0.8681
   67DOPC  H13S 9183   4.074   3.834   4.726 -0.0429 -0.2039  0.3109
   67DOPC  C214 9184   4.176   3.736   4.563  0.5739 -0.3855  0.4683
   67DOPC  H14R 9185   4.075   3.710   4.523  1.3323 -0.5834 -1.4564
   67DOPC  H14S 9186   4.209   3.642   4.612  1.2183 -3.0363 -4.3386
   67DOPC  C215 9187   4.283   3.742   4.450 -0.2481 -0.1866 -0.2993
   67DOPC  H15R 9188   4.278   3.646   4.395  1.1230 -0.3130 -0.2272
   67DOPC  H15S 9189   4.387   3.744   4.489 -0.5958  2.8251  0.8175
   67DOPC  C216 9190   4.273   3.855   4.354  0.0844 -0.7808  1.2120
   67DOPC  H16R 9191   4.302   3.938   4.423 -2.3214 -2.1431  4.0727
   67DOPC  H16S 9192   4.166   3.852   4.327  0.1131 -0.1241  1.0058
   67DOPC  C217 9193   4.364   3.855   4.231 -0.3258 -0.4650 -0.6885
   67DOPC  H17R 9194   4.361   3.760   4.172  1.3061 -1.3615  0.5803
   67DOPC  H17S 9195   4.470   3.870   4.258 -0.1670 -3.6593  0.9220
   67DOPC  C218 9196   4.336   3.970   4.129  0.1099 -0.7239  0.4649
   67DOPC  H18R 9197   4.311   4.059   4.191  0.4615  0.0012 -0.4085
   67DOPC  H18S 9198   4.255   3.939   4.060 -1.8342  0.3281  2.1486
   67DOPC  H18T 9199   4.429   3.982   4.070 -0.6336 -1.0156 -0.7998
   67DOPC   C33 9200   5.074   4.336   5.651 -0.0742  0.0633 -0.3915
   67DOPC   H3X 9201   5.181   4.307   5.654  0.4276  1.5129 -2.1859
   67DOPC   H3Y 9202   5.065   4.429   5.710  0.5345 -0.5072  0.6314
   67DOPC   C34 9203   5.055   4.378   5.503  0.2671 -0.8418 -0.2350
   67DOPC   H4X 9204   5.135   4.454   5.490  0.1064 -0.9239 -1.7830
   67DOPC   H4Y 9205   4.957   4.425   5.478  1.3758  0.9035 -1.5783
   67DOPC   C35 9206   5.071   4.269   5.407 -0.0216  0.6557 -0.5310
   67DOPC   H5X 9207   4.989   4.194   5.407  1.1697 -0.6953 -1.0009
   67DOPC   H5Y 9208   5.162   4.208   5.430 -0.0273  0.8783  0.1089
   67DOPC   C36 9209   5.088   4.307   5.259  0.1242  0.3578 -0.2455
   67DOPC   H6X 9210   4.992   4.343   5.215  0.1294  3.1061  1.7051
   67DOPC   H6Y 9211   5.166   4.383   5.239 -0.2231  1.5344  2.4859
   67DOPC   C37 9212   5.135   4.178   5.176 -0.2810 -0.8040 -0.0366
   67DOPC   H7X 9213   5.233   4.145   5.216  0.0451  1.5736  1.3196
   67DOPC   H7Y 9214   5.063   4.099   5.206 -1.0222 -0.2880 -0.4089
   67DOPC   C38 9215   5.127   4.207   5.022  0.7298  0.2241  0.1725
   67DOPC   H8X 9216   5.178   4.305   5.007 -3.2621  2.5876  0.6768
   67DOPC   H8Y 9217   5.026   4.229   4.983  0.5759 -0.4582  0.1813
   67DOPC   C39 9218   5.191   4.103   4.935  0.2964  0.6692  0.7111
   67DOPC   H9X 9219   5.292   4.077   4.970 -0.4028 -1.3578  1.3671
   67DOPC  C310 9220   5.143   4.049   4.820  0.2450 -0.1194 -0.5839
   67DOPC  H10X 9221   5.205   3.976   4.766  2.3521  1.6903 -0.7504
   67DOPC  C311 9222   5.004   4.073   4.761  0.2832  0.1460 -0.9502
   67DOPC  H11X 9223   4.969   4.177   4.775 -2.4965 -0.5381 -2.0341
   67DOPC  H11Y 9224   4.929   4.001   4.802  0.8039  0.7927  1.2517
   67DOPC  C312 9225   5.007   4.045   4.607 -0.0488  0.4721 -0.3722
   67DOPC  H12X 9226   4.906   4.064   4.566 -0.1238  2.9203  0.8073
   67DOPC  H12Y 9227   5.033   3.939   4.586 -1.1874  0.2877 -0.9311
   67DOPC  C313 9228   5.101   4.137   4.528 -0.2572  0.5493 -0.4428
   67DOPC  H13X 9229   5.077   4.246   4.536 -0.9062  0.3781  0.0031
   67DOPC  H13Y 9230   5.203   4.118   4.569  0.7857  1.8788 -2.2671
   67DOPC  C314 9231   5.093   4.104   4.378 -0.0032 -0.3949  0.0830
   67DOPC  H14X 9232   5.086   3.994   4.366 -2.9752 -0.1345 -1.4855
   67DOPC  H14Y 9233   5.002   4.158   4.345  0.0418 -0.6985 -0.5510
   67DOPC  C315 9234   5.189   4.181   4.288 -0.2338  0.7882  0.5065
   67DOPC  H15X 9235   5.285   4.126   4.297  0.1302  1.5205  1.2725
   67DOPC  H15Y 9236   5.210   4.284   4.325 -2.8190  2.7995 -2.9742
   67DOPC  C316 9237   5.131   4.204   4.150  0.1520  0.0919 -0.1352
   67DOPC  H16X 9238   5.072   4.117   4.114  4.6750 -3.2005 -0.5792
   67DOPC  H16Y 9239   5.055   4.284   4.156  0.4687  0.2891  1.7366
   67DOPC  C317 9240   5.245   4.236   4.052  0.0901  0.0632  0.2047
   67DOPC  H17X 9241   5.199   4.278   3.959  0.3685 -1.7205 -0.7863
   67DOPC  H17Y 9242   5.310   4.315   4.093 -2.0274  1.9203  0.1517
   67DOPC  C318 9243   5.327   4.112   4.020 -0.0178  1.0214  0.6126
   67DOPC  H18X 9244   5.262   4.038   3.969  1.1720 -0.1902  0.7994
   67DOPC  H18Y 9245   5.407   4.121   3.944 -2.5316 -0.0777 -2.4177
   67DOPC  H18Z 9246   5.356   4.069   4.118 -1.1598  1.2396  1.0598
   68DOPC     N 9247   7.799   6.440   5.983  0.7564  0.8070 -0.6104
   68DOPC   C12 9248   7.894   6.521   6.068  0.7938 -0.0279 -0.1565
   68DOPC  H12A 9249   7.865   6.512   6.172  0.6657 -0.0574 -0.1945
   68DOPC  H12B 9250   7.866   6.624   6.057  0.6762 -0.1525 -1.0436
   68DOPC   C13 9251   7.811   6.478   5.842 -0.6181 -0.6076 -0.1988
   68DOPC  H13A 9252   7.749   6.423   5.773  1.5506 -3.6382  0.0624
   68DOPC  H13B 9253   7.795   6.585   5.839 -0.1850 -0.5261  0.1510
   68DOPC  H13C 9254   7.915   6.459   5.822 -0.2685  0.4159  0.5452
   68DOPC   C14 9255   7.656   6.462   6.034  0.1021  0.0680  0.4579
   68DOPC  H14A 9256   7.633   6.565   6.053 -0.2389  0.0030  0.4001
   68DOPC  H14B 9257   7.579   6.428   5.966  0.3815  0.6193 -0.1355
   68DOPC  H14C 9258   7.631   6.408   6.124  0.0007 -0.8205 -0.0863
   68DOPC   C15 9259   7.820   6.293   5.990  0.0909 -0.5185  0.4705
   68DOPC  H15A 9260   7.916   6.266   5.947  1.1695  0.9138  1.8774
   68DOPC  H15B 9261   7.752   6.241   5.924  0.1482 -1.4748  1.1348
   68DOPC  H15C 9262   7.808   6.247   6.087 -0.2509  0.2300  0.7883
   68DOPC   C11 9263   8.043   6.499   6.054 -0.1325  0.4281 -0.1078
   68DOPC  H11A 9264   8.095   6.581   6.108 -1.5629  1.7828 -0.7077
   68DOPC  H11B 9265   8.064   6.402   6.104  0.5783 -0.1132 -1.4281
   68DOPC     P 9266   8.181   6.398   5.858  0.0270  0.0881  0.0731
   68DOPC   O13 9267   8.112   6.268   5.863 -0.4554  0.0388 -0.0498
   68DOPC   O14 9268   8.308   6.412   5.930 -0.5089 -0.1639  0.6054
   68DOPC   O12 9269   8.085   6.507   5.922 -0.0009  0.8337 -0.3516
   68DOPC   O11 9270   8.192   6.445   5.704 -0.0594 -0.4448  0.2712
   68DOPC    C1 9271   8.079   6.482   5.627 -0.8485 -0.5343 -0.3421
   68DOPC    HA 9272   8.008   6.543   5.687 -0.3316  0.2870 -0.5533
   68DOPC    HB 9273   8.010   6.397   5.605 -1.1712  0.1367 -2.0337
   68DOPC    C2 9274   8.117   6.550   5.492  0.9025  1.1523  0.1019
   68DOPC    HS 9275   8.028   6.608   5.461 -2.0939 -2.8467  0.4501
   68DOPC   O21 9276   8.155   6.455   5.385 -0.3586 -0.1750 -0.3282
   68DOPC   C21 9277   8.058   6.373   5.343  0.7831 -0.1356 -0.0135
   68DOPC   O22 9278   7.941   6.378   5.380  0.0486  0.3512 -0.0860
   68DOPC   C22 9279   8.115   6.253   5.273  0.6849 -0.9267 -0.7292
   68DOPC   H2R 9280   8.154   6.186   5.352 -1.2460 -0.5047  0.6491
   68DOPC   H2S 9281   8.197   6.273   5.200 -0.3246 -2.0394 -2.2335
   68DOPC    C3 9282   8.230   6.644   5.507  0.2226  0.0900  0.1017
   68DOPC    HX 9283   8.323   6.582   5.510  0.2053  0.0765  0.4111
   68DOPC    HY 9284   8.205   6.692   5.604 -0.9623 -0.7215  0.2146
   68DOPC   O31 9285   8.230   6.728   5.384  0.0131  0.1536 -0.4211
   68DOPC   C31 9286   8.321   6.827   5.398  1.0556 -0.1684  0.1124
   68DOPC   O32 9287   8.401   6.838   5.485  0.1909  0.3498 -0.0076
   68DOPC   C32 9288   8.300   6.912   5.278  0.0546  0.0477 -0.6453
   68DOPC   H2X 9289   8.302   6.851   5.185 -2.6894 -1.1440 -0.0262
   68DOPC   H2Y 9290   8.197   6.954   5.280 -0.0693 -0.2693 -0.3055
   68DOPC   C23 9291   8.008   6.183   5.188  0.0223  0.8748  0.5789
   68DOPC   H3R 9292   7.908   6.188   5.235  0.1444  0.1678  0.9361
   68DOPC   H3S 9293   8.046   6.079   5.174 -0.7488  0.4961  1.2146
   68DOPC   C24 9294   7.989   6.235   5.046  0.2118 -0.0727  0.1657
   68DOPC   H4R 9295   8.076   6.201   4.985 -0.2724 -1.8615  0.4189
   68DOPC   H4S 9296   7.992   6.346   5.041  0.6748 -0.0906 -4.0324
   68DOPC   C25 9297   7.857   6.183   4.994  0.2392  0.9429  0.7408
   68DOPC   H5R 9298   7.779   6.206   5.071  0.3056  0.7924  0.8539
   68DOPC   H5S 9299   7.876   6.073   4.992 -1.1697  0.5640  3.4890
   68DOPC   C26 9300   7.823   6.238   4.860  0.3313 -0.8307 -0.3721
   68DOPC   H6R 9301   7.813   6.348   4.877  3.0520 -0.8653  2.2331
   68DOPC   H6S 9302   7.724   6.202   4.824 -0.3922  0.0538  0.6750
   68DOPC   C27 9303   7.929   6.206   4.750  0.0542  0.3094 -0.1864
   68DOPC   H7R 9304   7.947   6.097   4.759  0.2157  0.5114  4.1065
   68DOPC   H7S 9305   8.019   6.259   4.787  0.1925 -0.0527 -0.0074
   68DOPC   C28 9306   7.894   6.255   4.617  0.3967 -0.1036  0.7374
   68DOPC   H8R 9307   7.984   6.242   4.554 -1.0383 -0.8928 -1.2752
   68DOPC   H8S 9308   7.885   6.366   4.617  0.0405 -0.0861 -1.9099
   68DOPC   C29 9309   7.774   6.182   4.556  0.0249 -0.2531 -0.1658
   68DOPC   H9R 9310   7.699   6.145   4.627 -1.9639  0.7030 -1.6657
   68DOPC  C210 9311   7.750   6.154   4.432  0.4331  0.5344 -0.4058
   68DOPC  H10R 9312   7.680   6.070   4.415 -0.5051  1.1768  0.1767
   68DOPC  C211 9313   7.840   6.202   4.319 -0.2896  0.1077  0.5924
   68DOPC  H11R 9314   7.924   6.269   4.348  1.1311 -1.0696 -0.6777
   68DOPC  H11S 9315   7.775   6.279   4.271 -0.5004 -0.1972  0.3848
   68DOPC  C212 9316   7.915   6.106   4.217  0.4197  0.1688  0.2511
   68DOPC  H12R 9317   7.962   6.167   4.137  1.6205 -1.8059 -0.6408
   68DOPC  H12S 9318   7.836   6.040   4.174  1.4179  0.9912 -3.0752
   68DOPC  C213 9319   8.016   6.018   4.296 -0.0905  1.0081  0.0862
   68DOPC  H13R 9320   7.967   5.974   4.386  1.1501 -1.6037 -0.4369
   68DOPC  H13S 9321   8.084   6.091   4.344  0.6658  0.5734 -0.3181
   68DOPC  C214 9322   8.080   5.919   4.203  0.0911 -0.7548  0.7797
   68DOPC  H14R 9323   8.132   5.981   4.127 -1.8259  2.8599  2.1857
   68DOPC  H14S 9324   8.009   5.852   4.150 -1.2898  0.9941  0.3392
   68DOPC  C215 9325   8.181   5.819   4.278  0.8641  0.0261 -0.8095
   68DOPC  H15R 9326   8.270   5.876   4.314 -1.1087  1.8700  1.5115
   68DOPC  H15S 9327   8.224   5.751   4.201  1.2081 -0.1073 -0.4984
   68DOPC  C216 9328   8.112   5.742   4.391  0.0645  0.3125 -0.2342
   68DOPC  H16R 9329   8.021   5.702   4.342  0.9820 -0.5073 -1.3265
   68DOPC  H16S 9330   8.083   5.805   4.478 -0.7033 -0.7722  0.3201
   68DOPC  C217 9331   8.194   5.620   4.435 -0.5698  0.3052 -0.7848
   68DOPC  H17R 9332   8.160   5.584   4.534  0.6617  3.4517  0.9158
   68DOPC  H17S 9333   8.302   5.642   4.450 -0.4200 -0.4025 -0.7890
   68DOPC  C218 9334   8.188   5.509   4.332 -0.1618  0.1595  0.7237
   68DOPC  H18R 9335   8.221   5.522   4.226  2.7827 -3.6833  0.9556
   68DOPC  H18S 9336   8.082   5.475   4.327 -0.2062  0.4551 -0.7641
   68DOPC  H18T 9337   8.249   5.421   4.362 -0.7941 -0.9566 -1.0689
   68DOPC   C33 9338   8.393   7.032   5.261  0.0056 -0.1553 -0.3418
   68DOPC   H3X 9339   8.495   6.989   5.254  1.4652  2.5840  2.0890
   68DOPC   H3Y 9340   8.383   7.092   5.354  1.4688  0.1297 -0.3598
   68DOPC   C34 9341   8.371   7.113   5.129  0.0807  0.2892  0.5491
   68DOPC   H4X 9342   8.426   7.210   5.130  0.3461  0.2142 -1.5082
   68DOPC   H4Y 9343   8.270   7.156   5.115  0.4604  0.7674 -0.9634
   68DOPC   C35 9344   8.417   7.040   5.004  0.2252 -0.6148 -0.1996
   68DOPC   H5X 9345   8.370   6.940   5.013  0.4598 -0.6952  0.1810
   68DOPC   H5Y 9346   8.526   7.020   5.004  0.4788  0.5837  0.9459
   68DOPC   C36 9347   8.376   7.110   4.876 -0.2223 -0.9315 -0.4115
   68DOPC   H6X 9348   8.269   7.139   4.875  0.4221  1.7461 -2.1582
   68DOPC   H6Y 9349   8.434   7.205   4.873  0.2278 -1.1244  1.3819
   68DOPC   C37 9350   8.395   7.015   4.755  0.2115 -0.3715  0.0690
   68DOPC   H7X 9351   8.501   6.983   4.754  0.4136  0.0685  2.4107
   68DOPC   H7Y 9352   8.325   6.930   4.771 -3.0588  2.2334  0.8411
   68DOPC   C38 9353   8.368   7.079   4.619  0.5636  0.2371 -0.2079
   68DOPC   H8X 9354   8.441   7.163   4.614  0.3673  0.4424  0.3613
   68DOPC   H8Y 9355   8.266   7.122   4.622  0.4582 -0.0441  0.3419
   68DOPC   C39 9356   8.365   6.981   4.500  0.6013 -0.7714 -0.4261
   68DOPC   H9X 9357   8.338   6.875   4.516  1.3074 -1.3506 -2.7091
   68DOPC  C310 9358   8.401   7.019   4.380 -0.7877 -0.2474  0.2163
   68DOPC  H10X 9359   8.404   6.956   4.290  3.4042  2.0753 -1.6066
   68DOPC  C311 9360   8.442   7.167   4.345  0.4340 -0.2546 -0.8294
   68DOPC  H11X 9361   8.551   7.179   4.367  0.2064 -0.9712  0.8275
   68DOPC  H11Y 9362   8.394   7.231   4.422  2.9515 -0.4367  1.0378
   68DOPC  C312 9363   8.411   7.210   4.200 -0.6857  0.1046 -0.0190
   68DOPC  H12X 9364   8.426   7.320   4.205  1.8824 -0.1683 -0.5889
   68DOPC  H12Y 9365   8.306   7.193   4.168  0.0284  0.2754 -2.7749
   68DOPC  C313 9366   8.517   7.147   4.095  0.2612 -1.4304  0.0275
   68DOPC  H13X 9367   8.618   7.178   4.127  0.4585 -2.4172  0.4184
   68DOPC  H13Y 9368   8.507   7.036   4.097  1.1845 -1.5256 -0.1447
   68DOPC  C314 9369   8.481   7.183   3.947 -0.1669  0.5453  0.3329
   68DOPC  H14X 9370   8.471   7.294   3.944 -0.8800  0.4717 -0.1101
   68DOPC  H14Y 9371   8.567   7.148   3.886 -0.7321  0.2613 -0.3131
   68DOPC  C315 9372   8.347   7.128   3.894 -0.2475 -0.3508  0.3021
   68DOPC  H15X 9373   8.319   7.160   3.791 -1.4815 -0.6286  0.5327
   68DOPC  H15Y 9374   8.269   7.164   3.965  0.7369 -0.9330  1.7272
   68DOPC  C316 9375   8.353   6.972   3.875 -0.0220  0.1226 -0.3699
   68DOPC  H16X 9376   8.356   6.942   3.768 -1.2589 -0.5326 -0.2492
   68DOPC  H16Y 9377   8.441   6.938   3.933  0.7194  1.2738 -0.7846
   68DOPC  C317 9378   8.227   6.902   3.932 -0.1415  0.0222  0.1215
   68DOPC  H17X 9379   8.245   6.793   3.928 -0.6843 -0.1617  1.8842
   68DOPC  H17Y 9380   8.225   6.930   4.040  1.1164  2.9112 -0.5096
   68DOPC  C318 9381   8.093   6.935   3.855  0.4720  0.0252  0.3968
   68DOPC  H18X 9382   8.117   7.009   3.777  2.2126 -0.4359  0.4550
   68DOPC  H18Y 9383   8.046   6.840   3.819  0.1434 -0.2073  1.3963
   68DOPC  H18Z 9384   8.015   6.979   3.921  1.2295  0.9802  0.6798
   69DOPC     N 9385   6.037  11.461   6.496 -0.0731  0.5786  0.3227
   69DOPC   C12 9386   6.121  11.528   6.384 -0.3872  0.4343 -0.3345
   69DOPC  H12A 9387   6.223  11.501   6.406 -0.5395  0.2056  0.1116
   69DOPC  H12B 9388   6.123  11.636   6.381  2.7841  0.4580 -0.5398
   69DOPC   C13 9389   5.896  11.504   6.482  0.0554  0.0928 -0.1619
   69DOPC  H13A 9390   5.848  11.448   6.402 -0.6020 -0.3998  0.5603
   69DOPC  H13B 9391   5.832  11.480   6.566  3.1106 -2.5807  1.6328
   69DOPC  H13C 9392   5.892  11.611   6.471  0.1426  0.2818  1.4924
   69DOPC   C14 9393   6.091  11.508   6.629 -0.3919 -0.6944 -0.2046
   69DOPC  H14A 9394   6.191  11.474   6.653 -0.6193 -1.0269  0.2996
   69DOPC  H14B 9395   6.102  11.614   6.647  1.5784 -1.0546  1.0497
   69DOPC  H14C 9396   6.028  11.475   6.710 -2.4214  2.0898 -0.5002
   69DOPC   C15 9397   6.043  11.310   6.495  0.2363  0.7969 -0.7899
   69DOPC  H15A 9398   6.028  11.278   6.394 -2.0520  0.3662 -0.3537
   69DOPC  H15B 9399   5.969  11.265   6.559 -0.2745  2.7164  0.0382
   69DOPC  H15C 9400   6.136  11.270   6.534  0.0452  2.5023  1.6325
   69DOPC   C11 9401   6.093  11.482   6.233  0.3727 -0.0469  0.2819
   69DOPC  H11A 9402   5.990  11.505   6.200 -0.8896 -2.0046  2.5206
   69DOPC  H11B 9403   6.162  11.549   6.178 -0.6408  1.5602  0.8920
   69DOPC     P 9404   6.259  11.297   6.145 -0.0718  0.3479  0.1779
   69DOPC   O13 9405   6.250  11.155   6.097 -0.5468 -0.5999  0.2467
   69DOPC   O14 9406   6.355  11.324   6.254  0.4775  0.1568  0.2020
   69DOPC   O12 9407   6.115  11.338   6.209 -0.1293 -0.3743 -0.0228
   69DOPC   O11 9408   6.267  11.397   6.023 -0.4754 -0.7298 -0.8463
   69DOPC    C1 9409   6.169  11.397   5.918 -0.4884  0.0153  0.3392
   69DOPC    HA 9410   6.187  11.492   5.863  0.4498 -0.2771  0.1255
   69DOPC    HB 9411   6.067  11.402   5.963 -0.5700 -0.6348  0.2392
   69DOPC    C2 9412   6.175  11.276   5.823 -0.7570  0.1799 -0.6303
   69DOPC    HS 9413   6.144  11.191   5.887  1.4234  0.8506  1.4350
   69DOPC   O21 9414   6.307  11.248   5.778 -0.2985 -0.0220 -0.3475
   69DOPC   C21 9415   6.377  11.333   5.709 -0.1459 -0.3695  0.1343
   69DOPC   O22 9416   6.348  11.448   5.678 -0.4693  0.4631 -0.2459
   69DOPC   C22 9417   6.497  11.261   5.653  0.0183  0.1501 -0.3208
   69DOPC   H2R 9418   6.487  11.151   5.669  0.0739 -0.2261 -2.5866
   69DOPC   H2S 9419   6.584  11.316   5.694  0.2116  0.1314 -0.7093
   69DOPC    C3 9420   6.077  11.278   5.710  0.3212 -0.0173  0.4203
   69DOPC    HX 9421   6.090  11.379   5.666 -1.1348 -0.6421 -1.6043
   69DOPC    HY 9422   5.972  11.264   5.744  0.7145 -1.2775  1.1577
   69DOPC   O31 9423   6.103  11.183   5.602 -0.1983  0.3292  0.5532
   69DOPC   C31 9424   6.092  11.054   5.628  0.0905  0.5084  0.0575
   69DOPC   O32 9425   6.057  11.009   5.731 -0.9328  0.0600 -0.2078
   69DOPC   C32 9426   6.143  10.968   5.507 -0.1981  0.2858  0.4819
   69DOPC   H2X 9427   6.192  11.025   5.425 -2.5567 -0.2852 -1.4301
   69DOPC   H2Y 9428   6.218  10.900   5.554 -0.3767 -0.6348 -0.5435
   69DOPC   C23 9429   6.527  11.280   5.498 -0.3581  0.1051 -0.2713
   69DOPC   H3R 9430   6.633  11.254   5.480 -0.0700  1.0643 -0.0077
   69DOPC   H3S 9431   6.518  11.388   5.478  0.6174  0.6470  1.9256
   69DOPC   C24 9432   6.441  11.194   5.402  0.5066 -0.4756  0.4008
   69DOPC   H4R 9433   6.335  11.221   5.421  1.4649  2.1609  2.9079
   69DOPC   H4S 9434   6.459  11.086   5.420 -0.3030 -0.4343  1.5884
   69DOPC   C25 9435   6.453  11.237   5.253  0.8305 -0.2974  0.2030
   69DOPC   H5R 9436   6.550  11.193   5.219  0.5091 -2.1542  1.5337
   69DOPC   H5S 9437   6.466  11.346   5.242  1.5302 -0.3717  0.2320
   69DOPC   C26 9438   6.341  11.175   5.166  0.1511 -1.0939  0.4171
   69DOPC   H6R 9439   6.250  11.239   5.170  1.4308  1.0093 -1.4666
   69DOPC   H6S 9440   6.322  11.071   5.197  0.1475 -1.0551  0.5419
   69DOPC   C27 9441   6.382  11.164   5.015 -0.0817  0.3969 -0.8729
   69DOPC   H7R 9442   6.462  11.087   5.023 -0.3257  0.3245  4.3364
   69DOPC   H7S 9443   6.412  11.257   4.963  0.0985  0.3463 -0.8606
   69DOPC   C28 9444   6.269  11.091   4.943 -0.0499  0.8876  0.2566
   69DOPC   H8R 9445   6.220  11.007   4.998 -2.4467  1.7215 -0.4959
   69DOPC   H8S 9446   6.311  11.026   4.863  0.2328 -0.3153  1.3460
   69DOPC   C29 9447   6.156  11.183   4.917  0.6570  0.2608 -0.1121
   69DOPC   H9R 9448   6.129  11.245   5.003  1.4197 -0.2736  0.5177
   69DOPC  C210 9449   6.094  11.208   4.798 -0.2947  0.2610  0.1399
   69DOPC  H10R 9450   6.013  11.283   4.806  2.1379  2.9256  1.8349
   69DOPC  C211 9451   6.104  11.144   4.658 -0.9320  0.4293 -0.2858
   69DOPC  H11R 9452   6.056  11.046   4.642  3.2114 -2.2004  1.5664
   69DOPC  H11S 9453   6.211  11.126   4.636 -1.2743  0.6402 -2.3075
   69DOPC  C212 9454   6.039  11.242   4.555 -0.0997  0.0490  0.1609
   69DOPC  H12R 9455   5.950  11.296   4.595  1.7425  3.1741  0.3823
   69DOPC  H12S 9456   6.008  11.174   4.472 -1.0233 -0.7976  1.1784
   69DOPC  C213 9457   6.141  11.343   4.506  0.7877 -0.7328 -0.1442
   69DOPC  H13R 9458   6.241  11.295   4.503  1.4207  0.4338  1.2073
   69DOPC  H13S 9459   6.144  11.426   4.580  2.4032 -0.6168 -0.2927
   69DOPC  C214 9460   6.119  11.410   4.364 -0.2907 -0.0384 -0.2312
   69DOPC  H14R 9461   6.136  11.331   4.288 -0.7530 -1.3432  0.9622
   69DOPC  H14S 9462   6.188  11.496   4.351 -0.3187  0.6149  2.9960
   69DOPC  C215 9463   5.979  11.465   4.351 -0.0779  0.4264  0.0238
   69DOPC  H15R 9464   5.960  11.537   4.434  2.7209  0.0182  1.1174
   69DOPC  H15S 9465   5.905  11.382   4.357  1.0126 -0.4767  1.5994
   69DOPC  C216 9466   5.953  11.545   4.218  0.0037 -0.3036 -0.2512
   69DOPC  H16R 9467   6.003  11.644   4.216 -1.0964  0.2609 -1.0458
   69DOPC  H16S 9468   5.846  11.573   4.213 -0.4740 -2.0696 -0.7324
   69DOPC  C217 9469   5.970  11.475   4.086 -0.1265 -0.0764  0.5395
   69DOPC  H17R 9470   5.893  11.396   4.084 -1.5187  1.1848  1.6006
   69DOPC  H17S 9471   6.067  11.421   4.084 -1.1480 -1.9860  0.2335
   69DOPC  C218 9472   5.945  11.570   3.970 -0.2866 -0.0110 -0.2851
   69DOPC  H18R 9473   5.851  11.627   3.984 -1.3109 -2.2964  3.6331
   69DOPC  H18S 9474   5.935  11.509   3.877 -1.6614 -0.5378  0.1769
   69DOPC  H18T 9475   6.034  11.634   3.953  1.1198 -1.6820  0.3810
   69DOPC   C33 9476   6.030  10.881   5.452  0.5990 -0.4715 -0.0179
   69DOPC   H3X 9477   5.989  10.820   5.535  0.3777 -0.5475 -0.1815
   69DOPC   H3Y 9478   6.067  10.810   5.374  1.0580  0.6287 -0.8300
   69DOPC   C34 9479   5.910  10.958   5.384  0.1043  0.5362 -0.0371
   69DOPC   H4X 9480   5.896  11.058   5.432  0.7212  0.3986  0.4513
   69DOPC   H4Y 9481   5.821  10.892   5.391 -0.0695  0.8065  0.3261
   69DOPC   C35 9482   5.937  10.970   5.237  0.6303  0.1160 -0.5171
   69DOPC   H5X 9483   5.941  10.870   5.188 -2.3445 -0.3184 -0.0568
   69DOPC   H5Y 9484   6.018  11.040   5.209  0.2453  0.4068 -0.9366
   69DOPC   C36 9485   5.815  11.025   5.161  0.2474  0.0307 -0.3426
   69DOPC   H6X 9486   5.729  10.974   5.210  0.2468 -0.6712 -1.0402
   69DOPC   H6Y 9487   5.805  11.132   5.186  3.7343 -0.2605  3.1460
   69DOPC   C37 9488   5.820  11.011   5.011 -0.1602  0.0708  0.1318
   69DOPC   H7X 9489   5.917  11.034   4.962 -0.2891 -1.1581 -0.7448
   69DOPC   H7Y 9490   5.797  10.905   4.987  1.7835 -0.4111  0.2168
   69DOPC   C38 9491   5.708  11.089   4.939  0.2286 -0.4236 -0.3588
   69DOPC   H8X 9492   5.703  11.191   4.982 -0.4714 -0.3639 -0.5828
   69DOPC   H8Y 9493   5.613  11.033   4.954 -0.0360 -0.4980 -2.1638
   69DOPC   C39 9494   5.720  11.108   4.796 -0.1817  0.1510 -0.2033
   69DOPC   H9X 9495   5.821  11.088   4.759  0.6991  0.8853  1.6752
   69DOPC  C310 9496   5.627  11.173   4.718  1.1681  0.6577  0.0493
   69DOPC  H10X 9497   5.644  11.194   4.612  0.2065 -0.0908 -0.2690
   69DOPC  C311 9498   5.505  11.239   4.762  0.4036  0.5165 -0.0969
   69DOPC  H11X 9499   5.532  11.344   4.740 -0.3551  1.0377  1.3058
   69DOPC  H11Y 9500   5.497  11.231   4.873  1.5672 -2.7419 -0.1245
   69DOPC  C312 9501   5.376  11.204   4.688 -0.0196  0.3641 -0.0922
   69DOPC  H12X 9502   5.396  11.179   4.581  1.9552  0.0300  0.3150
   69DOPC  H12Y 9503   5.309  11.292   4.681 -0.5138  0.0037  0.0755
   69DOPC  C313 9504   5.297  11.085   4.751  0.0590  0.4393  0.0011
   69DOPC  H13X 9505   5.219  11.049   4.680 -0.0882  0.0592  0.3520
   69DOPC  H13Y 9506   5.356  10.991   4.751 -1.1666 -0.3658 -0.1016
   69DOPC  C314 9507   5.248  11.096   4.892  0.3649  0.1858  0.3578
   69DOPC  H14X 9508   5.279  11.008   4.951  2.2716  0.2664 -0.4779
   69DOPC  H14Y 9509   5.288  11.189   4.939  0.1117  0.5924 -0.2144
   69DOPC  C315 9510   5.092  11.107   4.888 -0.0545  0.2577  0.0867
   69DOPC  H15X 9511   5.042  11.029   4.827 -1.5850  3.6622 -3.3741
   69DOPC  H15Y 9512   5.064  11.199   4.832 -1.8235 -0.1708  0.1885
   69DOPC  C316 9513   5.030  11.102   5.031 -0.7506 -0.0399  0.5083
   69DOPC  H16X 9514   5.045  10.997   5.065  0.8854 -0.3482 -1.0405
   69DOPC  H16Y 9515   5.087  11.175   5.093  0.3011  0.2799 -0.8024
   69DOPC  C317 9516   4.880  11.127   5.032  0.6517 -0.1352 -0.3977
   69DOPC  H17X 9517   4.863  11.222   4.977  0.6951  0.7758  1.1060
   69DOPC  H17Y 9518   4.829  11.046   4.975  0.5199  0.0574 -0.5548
   69DOPC  C318 9519   4.817  11.121   5.169 -0.3770 -0.7030 -0.1674
   69DOPC  H18X 9520   4.870  11.188   5.240  0.9823 -2.9619  1.0611
   69DOPC  H18Y 9521   4.715  11.164   5.168  0.5676  1.7747  1.1163
   69DOPC  H18Z 9522   4.824  11.018   5.210 -0.0296 -0.2043  1.0674
   70DOPC     N 9523   9.636   3.526   6.646 -0.1940 -0.4542 -0.0626
   70DOPC   C12 9524   9.594   3.647   6.575  0.1952  0.1543 -0.6211
   70DOPC  H12A 9525   9.682   3.708   6.560  0.6416 -0.3781 -0.1492
   70DOPC  H12B 9526   9.521   3.701   6.633 -0.2215  1.2113 -2.0644
   70DOPC   C13 9527   9.519   3.435   6.668  0.8662  0.2107 -0.3234
   70DOPC  H13A 9528   9.557   3.355   6.731  2.1401  1.1436  0.1462
   70DOPC  H13B 9529   9.443   3.483   6.727 -0.7778 -0.1835 -2.0342
   70DOPC  H13C 9530   9.473   3.391   6.581  2.0261 -1.7613 -0.0188
   70DOPC   C14 9531   9.704   3.551   6.778  0.0032  0.7701  0.0557
   70DOPC  H14A 9532   9.641   3.590   6.857  2.2002 -1.7412  3.3427
   70DOPC  H14B 9533   9.745   3.457   6.812  0.5545  1.3728  1.1175
   70DOPC  H14C 9534   9.787   3.614   6.753  1.7892 -1.6353 -0.4062
   70DOPC   C15 9535   9.734   3.439   6.570  0.2620 -0.1780  1.3528
   70DOPC  H15A 9536   9.816   3.503   6.538 -1.1917  0.0966 -2.3078
   70DOPC  H15B 9537   9.691   3.394   6.482 -1.0736  0.9952  1.3654
   70DOPC  H15C 9538   9.775   3.360   6.630 -2.8781 -2.0208  1.2413
   70DOPC   C11 9539   9.527   3.613   6.435 -0.6181 -0.3070 -1.1099
   70DOPC  H11A 9540   9.580   3.535   6.377  1.5287 -0.5162  0.9691
   70DOPC  H11B 9541   9.432   3.561   6.462 -0.8556 -0.5252 -2.3104
   70DOPC     P 9542   9.395   3.736   6.254  0.1366 -0.0784  0.0022
   70DOPC   O13 9543   9.427   3.840   6.154 -0.6003 -0.1724 -0.0849
   70DOPC   O14 9544   9.273   3.763   6.326  0.8522 -0.4685 -0.1483
   70DOPC   O12 9545   9.509   3.734   6.364 -0.3282  0.3470 -0.3544
   70DOPC   O11 9546   9.398   3.583   6.206 -0.5084 -0.0913  0.0121
   70DOPC    C1 9547   9.481   3.527   6.101 -0.2923 -0.3322  0.5131
   70DOPC    HA 9548   9.523   3.438   6.153 -0.6343 -0.2245  0.9897
   70DOPC    HB 9549   9.567   3.590   6.069 -0.3695 -1.2798 -1.6675
   70DOPC    C2 9550   9.402   3.498   5.970 -0.4873 -0.1235 -0.0956
   70DOPC    HS 9551   9.479   3.456   5.901  0.7364 -1.3436  1.8797
   70DOPC   O21 9552   9.345   3.621   5.920 -0.1743 -0.6448 -0.2155
   70DOPC   C21 9553   9.415   3.706   5.844  0.6662 -0.0856 -0.6620
   70DOPC   O22 9554   9.529   3.695   5.819  0.5644 -0.8580 -0.3852
   70DOPC   C22 9555   9.322   3.815   5.789 -0.7323 -0.6654  0.0488
   70DOPC   H2R 9556   9.297   3.894   5.863 -0.6502  1.2913 -1.8929
   70DOPC   H2S 9557   9.231   3.762   5.753 -0.9695  0.7157 -1.5600
   70DOPC    C3 9558   9.292   3.386   5.984  0.5633  0.2081 -0.5329
   70DOPC    HX 9559   9.216   3.436   6.048  2.6592  0.4488  1.9443
   70DOPC    HY 9560   9.345   3.302   6.034 -0.6634 -0.2300  0.0808
   70DOPC   O31 9561   9.230   3.347   5.858 -0.4469 -1.0526  0.3843
   70DOPC   C31 9562   9.252   3.231   5.813  0.0785 -0.5294  0.4480
   70DOPC   O32 9563   9.293   3.136   5.873 -0.2492  0.2033  0.3798
   70DOPC   C32 9564   9.204   3.228   5.666 -0.5154  0.2894 -0.2434
   70DOPC   H2X 9565   9.132   3.311   5.649 -1.2835 -0.3216 -0.0432
   70DOPC   H2Y 9566   9.292   3.238   5.600  0.2870 -0.8895  0.6173
   70DOPC   C23 9567   9.396   3.899   5.674 -0.3649  0.1854  0.2584
   70DOPC   H3R 9568   9.503   3.905   5.703 -1.0481 -2.7944  4.1114
   70DOPC   H3S 9569   9.362   4.005   5.678  1.0877  0.8102 -1.7336
   70DOPC   C24 9570   9.391   3.839   5.534  0.1403 -0.0015  0.3645
   70DOPC   H4R 9571   9.414   3.730   5.540 -1.2023 -0.3474 -0.5142
   70DOPC   H4S 9572   9.462   3.889   5.464 -2.2562  0.8497 -1.6136
   70DOPC   C25 9573   9.245   3.867   5.472 -0.4609 -0.0154 -0.0493
   70DOPC   H5R 9574   9.245   3.975   5.449  0.3674  0.2286  1.0264
   70DOPC   H5S 9575   9.165   3.834   5.543 -1.1760 -2.9578 -2.0097
   70DOPC   C26 9576   9.214   3.780   5.353 -0.3876 -0.7164  0.2101
   70DOPC   H6R 9577   9.105   3.778   5.334 -0.3760 -0.6050  0.1299
   70DOPC   H6S 9578   9.238   3.676   5.384 -0.0888 -0.8158 -0.3572
   70DOPC   C27 9579   9.299   3.830   5.240  0.2172 -1.1356 -0.2537
   70DOPC   H7R 9580   9.404   3.809   5.270 -0.1449 -0.4996  1.5793
   70DOPC   H7S 9581   9.275   3.938   5.230  0.5051 -1.0270  0.2034
   70DOPC   C28 9582   9.286   3.737   5.115 -0.5458 -0.6139 -0.5085
   70DOPC   H8R 9583   9.295   3.636   5.161 -0.4759 -0.5620 -0.4074
   70DOPC   H8S 9584   9.365   3.756   5.040  0.4315  2.9949  1.1990
   70DOPC   C29 9585   9.155   3.741   5.051 -0.0113 -0.0081 -0.5452
   70DOPC   H9R 9586   9.083   3.664   5.083  1.4597 -1.3733 -0.3875
   70DOPC  C210 9587   9.130   3.799   4.931  0.2412  0.1707  0.0526
   70DOPC  H10R 9588   9.025   3.807   4.898  0.1866  0.4962  0.3034
   70DOPC  C211 9589   9.224   3.885   4.864  0.6249  0.1251 -0.0435
   70DOPC  H11R 9590   9.304   3.921   4.932 -0.1969  0.5010  0.7518
   70DOPC  H11S 9591   9.172   3.977   4.828 -0.5453 -0.9136 -1.1025
   70DOPC  C212 9592   9.282   3.823   4.735  0.0645 -0.3299 -0.1697
   70DOPC  H12R 9593   9.347   3.737   4.762  1.5936  0.7773 -0.2680
   70DOPC  H12S 9594   9.348   3.881   4.667 -1.1103  2.4879  0.9226
   70DOPC  C213 9595   9.164   3.773   4.637 -1.0777 -0.1342  0.5032
   70DOPC  H13R 9596   9.138   3.867   4.583  1.5501  0.2377 -0.2880
   70DOPC  H13S 9597   9.083   3.721   4.692 -1.2929 -1.2083 -0.7703
   70DOPC  C214 9598   9.209   3.682   4.520 -0.3610  0.2752  0.0292
   70DOPC  H14R 9599   9.117   3.637   4.475  0.0515 -0.2296 -0.3231
   70DOPC  H14S 9600   9.275   3.600   4.555  0.2741  1.5741  2.0388
   70DOPC  C215 9601   9.286   3.759   4.409 -0.1770  0.3790 -0.3832
   70DOPC  H15R 9602   9.362   3.826   4.455 -0.1969 -1.6325  2.8631
   70DOPC  H15S 9603   9.214   3.826   4.357 -0.9491  1.0104  1.3970
   70DOPC  C216 9604   9.353   3.662   4.315  0.5061 -0.3067 -0.1014
   70DOPC  H16R 9605   9.283   3.610   4.247  0.4500 -2.6563  1.6004
   70DOPC  H16S 9606   9.391   3.579   4.380  1.5541 -0.3900 -0.7810
   70DOPC  C217 9607   9.469   3.733   4.242 -0.0920  0.5518 -0.1805
   70DOPC  H17R 9608   9.534   3.783   4.316 -1.4169  1.2257  0.5598
   70DOPC  H17S 9609   9.427   3.821   4.189 -0.2441  0.7538  0.2698
   70DOPC  C218 9610   9.541   3.636   4.154  0.2944 -0.1212  0.2854
   70DOPC  H18R 9611   9.565   3.545   4.212  0.9177  0.7533  1.4465
   70DOPC  H18S 9612   9.631   3.685   4.111 -0.6396  0.5258 -1.0019
   70DOPC  H18T 9613   9.480   3.623   4.062  0.5423  0.2698  0.0629
   70DOPC   C33 9614   9.121   3.104   5.641  0.4452 -0.4521  0.7379
   70DOPC   H3X 9615   9.028   3.117   5.699  1.7119 -0.7002  2.9172
   70DOPC   H3Y 9616   9.166   3.009   5.678  0.7619 -0.1680  1.0830
   70DOPC   C34 9617   9.081   3.095   5.489 -0.3453 -0.0062  0.3812
   70DOPC   H4X 9618   9.040   3.190   5.446 -0.3275  0.8822  2.2234
   70DOPC   H4Y 9619   8.994   3.026   5.487  0.9547 -1.8323  2.4940
   70DOPC   C35 9620   9.198   3.035   5.407 -0.3760 -0.1201  0.7336
   70DOPC   H5X 9621   9.227   2.934   5.443  0.1711 -1.2526 -2.5286
   70DOPC   H5Y 9622   9.291   3.095   5.418  0.0640 -0.7460  0.4821
   70DOPC   C36 9623   9.152   3.025   5.260  0.2659  0.0265  0.8870
   70DOPC   H6X 9624   9.059   2.965   5.254 -0.4890  1.1700  0.6099
   70DOPC   H6Y 9625   9.123   3.123   5.215 -1.2935 -0.4308  0.8265
   70DOPC   C37 9626   9.262   2.954   5.172  0.6950 -0.7716 -1.2404
   70DOPC   H7X 9627   9.352   3.017   5.186  0.2359 -0.1113 -1.2112
   70DOPC   H7Y 9628   9.296   2.859   5.218  2.0837  0.0987 -0.3944
   70DOPC   C38 9629   9.220   2.944   5.027 -0.0265 -0.7909  0.0729
   70DOPC   H8X 9630   9.302   2.892   4.972  0.6847  0.7781 -0.3958
   70DOPC   H8Y 9631   9.221   3.044   4.981 -0.5190 -1.5012 -1.5480
   70DOPC   C39 9632   9.088   2.892   5.003 -0.0496  0.5729 -0.1715
   70DOPC   H9X 9633   9.001   2.951   5.035 -1.7831 -1.7684 -0.3203
   70DOPC  C310 9634   9.065   2.779   4.933  0.2038 -0.6381  0.2620
   70DOPC  H10X 9635   8.964   2.763   4.893 -0.0338  2.3765 -0.5923
   70DOPC  C311 9636   9.178   2.698   4.867 -0.1722  0.6994  0.1230
   70DOPC  H11X 9637   9.284   2.712   4.896  0.5525 -2.1928 -0.8217
   70DOPC  H11Y 9638   9.179   2.710   4.756 -2.0256  0.1461  0.0088
   70DOPC  C312 9639   9.147   2.553   4.894  0.4358  0.5727 -0.3624
   70DOPC  H12X 9640   9.046   2.524   4.859  0.2580  1.9971 -1.1056
   70DOPC  H12Y 9641   9.142   2.534   5.004 -0.0032 -1.5908 -0.7205
   70DOPC  C313 9642   9.256   2.465   4.825  0.1431  0.6662  0.3925
   70DOPC  H13X 9643   9.357   2.483   4.869  0.9554 -2.3564  0.0193
   70DOPC  H13Y 9644   9.236   2.355   4.824  1.0868  0.4842  0.4339
   70DOPC  C314 9645   9.258   2.473   4.668  0.8113 -0.0383 -0.3884
   70DOPC  H14X 9646   9.163   2.447   4.618 -0.6265  1.4166  1.4434
   70DOPC  H14Y 9647   9.269   2.580   4.643 -0.4202  0.5686  1.4307
   70DOPC  C315 9648   9.366   2.396   4.598  0.4140 -0.8938  0.3029
   70DOPC  H15X 9649   9.336   2.293   4.625 -0.7094  0.1145  3.2455
   70DOPC  H15Y 9650   9.464   2.411   4.648  0.7783 -0.6474 -0.4696
   70DOPC  C316 9651   9.372   2.411   4.450 -0.0916 -0.6296  0.8983
   70DOPC  H16X 9652   9.274   2.442   4.408  0.1522 -1.4481 -0.2944
   70DOPC  H16Y 9653   9.443   2.490   4.417  0.8951 -1.7589  0.2264
   70DOPC  C317 9654   9.424   2.285   4.381 -0.0194  0.1840 -0.2511
   70DOPC  H17X 9655   9.519   2.265   4.434  0.5267  0.4814 -1.0993
   70DOPC  H17Y 9656   9.356   2.199   4.400  1.3567 -0.3581  2.7380
   70DOPC  C318 9657   9.446   2.304   4.232 -0.4542 -0.4296  0.7648
   70DOPC  H18X 9658   9.506   2.395   4.211  2.3912 -2.5050 -0.7090
   70DOPC  H18Y 9659   9.512   2.224   4.192 -0.0834 -0.1321  0.7749
   70DOPC  H18Z 9660   9.357   2.305   4.166  2.0140  1.4104 -2.8595
   71DOPC     N 9661   7.602   5.601   6.023  0.0044  0.5287 -0.1033
   71DOPC   C12 9662   7.633   5.628   5.873  0.0773 -0.9719 -0.0674
   71DOPC  H12A 9663   7.544   5.658   5.820 -0.1140 -0.4343  0.5259
   71DOPC  H12B 9664   7.681   5.539   5.838  0.3393 -1.0734  0.5290
   71DOPC   C13 9665   7.713   5.541   6.104  0.7780  0.3758 -0.2042
   71DOPC  H13A 9666   7.799   5.604   6.095  1.0476 -0.0485 -0.6776
   71DOPC  H13B 9667   7.690   5.527   6.209 -0.4705  0.1476 -0.4853
   71DOPC  H13C 9668   7.737   5.447   6.055 -2.2165 -0.7987  0.3238
   71DOPC   C14 9669   7.481   5.512   6.030 -0.5017 -0.3215  0.6175
   71DOPC  H14A 9670   7.433   5.531   6.125  0.9172 -0.5723  1.4128
   71DOPC  H14B 9671   7.413   5.540   5.951  0.3000 -1.5351 -0.5556
   71DOPC  H14C 9672   7.506   5.407   6.024 -1.3067 -0.4578 -1.2057
   71DOPC   C15 9673   7.564   5.731   6.082 -0.7441 -0.4740  0.4646
   71DOPC  H15A 9674   7.547   5.726   6.188 -0.1735 -0.4040  0.5635
   71DOPC  H15B 9675   7.472   5.760   6.033 -0.9827 -1.4073  0.3459
   71DOPC  H15C 9676   7.635   5.810   6.060 -2.9423  1.6729  0.6358
   71DOPC   C11 9677   7.734   5.731   5.844  0.2569  0.1503 -0.3029
   71DOPC  H11A 9678   7.822   5.702   5.905  0.4450  0.3021 -0.5027
   71DOPC  H11B 9679   7.764   5.728   5.737 -2.8839  0.5515 -1.3040
   71DOPC     P 9680   7.602   5.956   5.804  0.2369  0.1127  0.4333
   71DOPC   O13 9681   7.580   6.070   5.892  0.3325 -0.0426  0.5782
   71DOPC   O14 9682   7.476   5.880   5.773  0.1338 -0.3059  0.1902
   71DOPC   O12 9683   7.702   5.861   5.876 -0.1444 -0.1780  0.0752
   71DOPC   O11 9684   7.678   5.990   5.669  0.4677 -0.5719 -0.6203
   71DOPC    C1 9685   7.652   6.119   5.601  0.0967 -0.0012  0.1859
   71DOPC    HA 9686   7.751   6.163   5.577  0.8973 -1.3275  0.9099
   71DOPC    HB 9687   7.606   6.197   5.665  0.7114 -0.0697  0.7263
   71DOPC    C2 9688   7.570   6.102   5.464  0.5212 -0.2905 -0.7436
   71DOPC    HS 9689   7.566   6.200   5.412  2.7347 -0.4172 -1.2786
   71DOPC   O21 9690   7.442   6.042   5.484  0.4440 -0.0174  0.4834
   71DOPC   C21 9691   7.354   6.122   5.547 -0.0723 -0.5270  0.5581
   71DOPC   O22 9692   7.380   6.225   5.602 -0.0142  0.4657  0.7515
   71DOPC   C22 9693   7.211   6.072   5.549 -0.2187  0.2471  0.1071
   71DOPC   H2R 9694   7.150   6.163   5.569  1.9813  1.5200  1.4156
   71DOPC   H2S 9695   7.212   6.001   5.635  3.3375  1.1676  0.9761
   71DOPC    C3 9696   7.645   6.013   5.370  0.2878 -0.3626  0.7696
   71DOPC    HX 9697   7.653   5.905   5.395 -1.1353 -0.0867  2.6099
   71DOPC    HY 9698   7.752   6.043   5.369  0.5236 -0.7813 -3.3226
   71DOPC   O31 9699   7.600   6.030   5.228 -0.2429  1.0411 -0.0542
   71DOPC   C31 9700   7.494   5.952   5.205 -0.1055  0.5709 -0.7406
   71DOPC   O32 9701   7.460   5.857   5.269 -0.1488 -0.1371 -0.6198
   71DOPC   C32 9702   7.433   6.010   5.072 -0.6489 -0.6235  0.8494
   71DOPC   H2X 9703   7.350   6.080   5.094 -0.5721 -0.9259  2.1532
   71DOPC   H2Y 9704   7.517   6.061   5.020 -0.1198 -2.4361 -0.1801
   71DOPC   C23 9705   7.164   5.991   5.419  0.5925  0.1913  0.3658
   71DOPC   H3R 9706   7.084   5.921   5.452  1.3810 -1.1399 -0.4664
   71DOPC   H3S 9707   7.248   5.937   5.372  1.3924  0.2375  1.6726
   71DOPC   C24 9708   7.093   6.071   5.307 -0.3604  0.8574 -0.6949
   71DOPC   H4R 9709   7.171   6.133   5.258 -0.4089  2.1323  0.7642
   71DOPC   H4S 9710   7.022   6.137   5.361  0.0623  0.8979 -0.1814
   71DOPC   C25 9711   7.021   5.986   5.205  0.2499 -0.1090 -0.0909
   71DOPC   H5R 9712   6.941   5.927   5.255  1.3596 -1.1152  0.5225
   71DOPC   H5S 9713   7.092   5.917   5.156  2.7598  1.8938  0.4707
   71DOPC   C26 9714   6.964   6.078   5.098 -0.4634 -0.0496  0.2732
   71DOPC   H6R 9715   7.048   6.132   5.049  0.4076 -2.5392 -1.1552
   71DOPC   H6S 9716   6.889   6.148   5.139  1.1561  2.0091 -0.0716
   71DOPC   C27 9717   6.904   6.014   4.972  0.5077  0.1473 -0.5096
   71DOPC   H7R 9718   6.987   5.952   4.930  0.1198 -0.9491  0.3151
   71DOPC   H7S 9719   6.884   6.090   4.893  1.2801 -0.3138 -1.1783
   71DOPC   C28 9720   6.765   5.938   5.005 -0.1677  0.0716  0.1589
   71DOPC   H8R 9721   6.790   5.877   5.094  1.5627  0.3421 -0.0997
   71DOPC   H8S 9722   6.741   5.877   4.915 -2.1711  0.6277  0.2719
   71DOPC   C29 9723   6.651   6.027   5.048 -0.5082  0.3356 -0.3847
   71DOPC   H9R 9724   6.675   6.097   5.129  2.3294  0.5341 -1.2874
   71DOPC  C210 9725   6.533   6.049   4.980 -0.5568  0.1005  0.0136
   71DOPC  H10R 9726   6.464   6.123   5.024 -1.5283 -0.8080  0.0636
   71DOPC  C211 9727   6.489   5.977   4.853  0.4419 -0.2494  0.0449
   71DOPC  H11R 9728   6.381   5.957   4.869  0.2616  0.1744 -0.6083
   71DOPC  H11S 9729   6.531   5.874   4.848  0.4053 -0.3320  1.1242
   71DOPC  C212 9730   6.526   6.063   4.724  0.2892  0.1929 -0.7950
   71DOPC  H12R 9731   6.524   5.991   4.639  0.6858  0.5034 -1.0731
   71DOPC  H12S 9732   6.626   6.108   4.743  1.1041 -2.0967  0.7924
   71DOPC  C213 9733   6.420   6.168   4.689 -0.1281  0.0871 -0.1980
   71DOPC  H13R 9734   6.407   6.237   4.776  3.9684  1.1210 -0.1910
   71DOPC  H13S 9735   6.327   6.110   4.676  1.8191 -3.6448  1.0931
   71DOPC  C214 9736   6.456   6.256   4.566  0.1202 -0.3228  1.2714
   71DOPC  H14R 9737   6.556   6.302   4.576  0.0522  0.1762 -0.1691
   71DOPC  H14S 9738   6.380   6.337   4.560  1.0141  0.6144  2.1601
   71DOPC  C215 9739   6.461   6.164   4.437  0.3321 -0.5794 -0.0379
   71DOPC  H15R 9740   6.375   6.095   4.433  0.4709 -0.8440  1.2994
   71DOPC  H15S 9741   6.558   6.110   4.442  1.2362  1.0756  2.0641
   71DOPC  C216 9742   6.462   6.237   4.303 -0.7888 -0.8304  0.7022
   71DOPC  H16R 9743   6.486   6.163   4.223  0.1053 -1.7124  1.7561
   71DOPC  H16S 9744   6.536   6.320   4.307 -0.0093 -1.5182  0.9074
   71DOPC  C217 9745   6.331   6.299   4.256  0.6401  0.1667 -0.1724
   71DOPC  H17R 9746   6.242   6.242   4.292  0.0411  3.0444  3.4954
   71DOPC  H17S 9747   6.339   6.306   4.146 -0.0323  1.7096 -0.1478
   71DOPC  C218 9748   6.298   6.442   4.315  0.3580  0.4841 -0.4114
   71DOPC  H18R 9749   6.233   6.438   4.405  0.2814 -3.4352 -0.4669
   71DOPC  H18S 9750   6.239   6.492   4.235  0.5932 -1.4332 -1.8719
   71DOPC  H18T 9751   6.393   6.496   4.334  0.7036 -0.9042  2.4000
   71DOPC   C33 9752   7.384   5.901   4.981  0.5971  0.5257 -0.1263
   71DOPC   H3X 9753   7.288   5.857   5.016  0.6167  0.0736 -0.6346
   71DOPC   H3Y 9754   7.454   5.815   4.977  0.3476  0.3526 -0.8545
   71DOPC   C34 9755   7.359   5.953   4.846 -0.6788 -0.3047 -0.1274
   71DOPC   H4X 9756   7.455   5.973   4.795 -0.9185 -1.4796 -1.0882
   71DOPC   H4Y 9757   7.296   6.044   4.848  0.9395  0.8290  0.5335
   71DOPC   C35 9758   7.287   5.856   4.750  0.4824 -0.0579 -0.4451
   71DOPC   H5X 9759   7.192   5.823   4.797  0.5801  0.0139 -0.1947
   71DOPC   H5Y 9760   7.359   5.772   4.740  0.9952  0.2451  0.5813
   71DOPC   C36 9761   7.249   5.930   4.616  0.3379  0.0526  0.6824
   71DOPC   H6X 9762   7.206   6.031   4.634 -0.1819 -0.0841  0.2463
   71DOPC   H6Y 9763   7.344   5.950   4.562 -1.6663  0.3186 -3.0811
   71DOPC   C37 9764   7.151   5.840   4.542 -0.2359  0.5524  0.3646
   71DOPC   H7X 9765   7.063   5.817   4.606  0.6473  1.7550  2.0857
   71DOPC   H7Y 9766   7.114   5.893   4.452 -2.4477 -1.6827 -0.1793
   71DOPC   C38 9767   7.218   5.714   4.479  0.4608  0.0523  0.3925
   71DOPC   H8X 9768   7.279   5.648   4.544 -2.3376 -1.6853  1.4450
   71DOPC   H8Y 9769   7.285   5.759   4.403 -0.9304  0.6759 -0.5070
   71DOPC   C39 9770   7.109   5.637   4.404 -0.4537 -0.3542  0.1388
   71DOPC   H9X 9771   7.015   5.655   4.459 -0.7473 -0.4645 -0.3215
   71DOPC  C310 9772   7.118   5.546   4.306 -0.0718  0.6803 -0.2751
   71DOPC  H10X 9773   7.030   5.490   4.270  0.6721 -1.3934  0.9460
   71DOPC  C311 9774   7.234   5.533   4.208 -0.3115  0.2291  0.2712
   71DOPC  H11X 9775   7.282   5.435   4.230 -1.1214 -0.4234 -0.7765
   71DOPC  H11Y 9776   7.296   5.622   4.231 -1.9549  1.3120  0.7601
   71DOPC  C312 9777   7.188   5.538   4.066  0.7365  0.2793 -0.4503
   71DOPC  H12X 9778   7.279   5.543   4.002  2.0141  0.7564  1.3451
   71DOPC  H12Y 9779   7.138   5.631   4.031  1.6049  0.1612 -2.1281
   71DOPC  C313 9780   7.115   5.407   4.013  0.3662 -0.0984  0.0454
   71DOPC  H13X 9781   7.178   5.319   4.036  1.0713  0.1561 -0.8637
   71DOPC  H13Y 9782   7.008   5.401   4.045  0.3967  0.4611  0.2737
   71DOPC  C314 9783   7.113   5.407   3.851  0.0496  0.0314  0.2163
   71DOPC  H14X 9784   7.213   5.443   3.818  0.0286 -0.5008 -0.4430
   71DOPC  H14Y 9785   7.084   5.302   3.829 -0.9575 -0.5286  3.5588
   71DOPC  C315 9786   7.013   5.507   3.781 -0.8196 -0.4171  0.3689
   71DOPC  H15X 9787   7.044   5.611   3.802 -1.9134 -0.1782  0.8503
   71DOPC  H15Y 9788   6.918   5.487   3.835 -2.2004  2.0120 -1.0289
   71DOPC  C316 9789   6.997   5.473   3.632  0.5449 -0.6102 -0.5315
   71DOPC  H16X 9790   7.100   5.457   3.596  0.7588 -0.5724  0.0491
   71DOPC  H16Y 9791   6.928   5.386   3.631  2.5003 -2.2250 -0.5697
   71DOPC  C317 9792   6.933   5.587   3.552 -0.6956  0.4115 -0.6042
   71DOPC  H17X 9793   6.990   5.679   3.574 -0.3291 -0.0841  0.6022
   71DOPC  H17Y 9794   6.928   5.553   3.446 -0.3906 -1.3823 -0.0805
   71DOPC  C318 9795   6.790   5.628   3.592 -0.2017 -0.1072 -0.3921
   71DOPC  H18X 9796   6.789   5.676   3.692 -2.8929 -0.1744 -0.3056
   71DOPC  H18Y 9797   6.755   5.692   3.508  1.7315 -1.1144 -2.0598
   71DOPC  H18Z 9798   6.708   5.553   3.595 -0.2961  0.0311  1.1812
   72DOPC     N 9799  10.147   6.800   5.358 -0.0499  0.6937 -0.0998
   72DOPC   C12 9800  10.080   6.676   5.287 -0.0605 -0.1278  0.3894
   72DOPC  H12A 9801  10.159   6.612   5.252 -0.0574 -1.0843  2.0316
   72DOPC  H12B 9802  10.023   6.714   5.204  0.3542  1.9878  1.0001
   72DOPC   C13 9803  10.253   6.757   5.454  0.4235 -0.2513 -0.4369
   72DOPC  H13A 9804  10.207   6.678   5.511  1.0397 -0.2216  0.1158
   72DOPC  H13B 9805  10.339   6.711   5.407  0.0399  0.0064 -1.4306
   72DOPC  H13C 9806  10.272   6.835   5.526 -0.2465 -0.2050 -0.3071
   72DOPC   C14 9807  10.040   6.886   5.416  0.1777 -0.3412 -0.0480
   72DOPC  H14A 9808   9.970   6.924   5.343 -0.9482 -0.5268  0.9021
   72DOPC  H14B 9809   9.981   6.839   5.493 -0.5265  0.6558  0.0442
   72DOPC  H14C 9810  10.076   6.967   5.477 -0.9851  0.4247 -0.3431
   72DOPC   C15 9811  10.208   6.888   5.258  0.4275  0.3082 -0.0807
   72DOPC  H15A 9812  10.238   6.983   5.299 -1.7013  1.1061 -0.2499
   72DOPC  H15B 9813  10.125   6.916   5.194  0.9235  0.3234 -0.7245
   72DOPC  H15C 9814  10.294   6.841   5.213  1.1244  1.1263  0.3851
   72DOPC   C11 9815   9.976   6.589   5.366 -0.1774  0.3086 -0.0148
   72DOPC  H11A 9816   9.894   6.662   5.383 -1.1304 -0.7393  0.0249
   72DOPC  H11B 9817   9.925   6.514   5.303 -0.3833  0.4570 -0.0256
   72DOPC     P 9818  10.122   6.415   5.505 -0.0703  0.2407  0.5700
   72DOPC   O13 9819  10.039   6.310   5.571 -0.3427 -0.2237  0.2108
   72DOPC   O14 9820  10.240   6.454   5.575 -0.3639 -0.3946 -0.2550
   72DOPC   O12 9821  10.028   6.541   5.492 -0.1086 -0.2111 -0.3796
   72DOPC   O11 9822  10.160   6.377   5.361  0.0293  0.2181  0.0132
   72DOPC    C1 9823  10.216   6.248   5.333 -0.8176  0.0505 -0.5710
   72DOPC    HA 9824  10.146   6.170   5.369 -2.5680  1.2628 -1.1838
   72DOPC    HB 9825  10.304   6.237   5.400 -1.4178  2.2215  0.6988
   72DOPC    C2 9826  10.255   6.219   5.184 -0.1117 -0.7304 -0.4103
   72DOPC    HS 9827  10.359   6.259   5.175  0.0157 -1.2756 -1.4477
   72DOPC   O21 9828  10.154   6.267   5.095  0.5735 -0.0590 -0.5103
   72DOPC   C21 9829  10.168   6.387   5.057 -0.4996 -0.2338 -0.3694
   72DOPC   O22 9830  10.269   6.455   5.072  0.2529  0.3127 -0.1791
   72DOPC   C22 9831  10.034   6.431   4.980 -0.3852  0.3645 -0.7915
   72DOPC   H2R 9832   9.965   6.443   5.066 -0.1529  0.7759 -0.6580
   72DOPC   H2S 9833  10.010   6.346   4.913  0.3192 -1.1305  0.7530
   72DOPC    C3 9834  10.271   6.068   5.162  0.4694  0.5690  0.3895
   72DOPC    HX 9835  10.168   6.029   5.182  1.1733 -1.5712  0.0779
   72DOPC    HY 9836  10.341   6.035   5.242  0.4452  1.9972  1.0295
   72DOPC   O31 9837  10.325   6.035   5.030  0.3141 -0.1314  0.3175
   72DOPC   C31 9838  10.283   5.917   4.980 -0.9502 -0.2538 -0.7150
   72DOPC   O32 9839  10.224   5.830   5.039 -0.1123 -0.2135  0.7348
   72DOPC   C32 9840  10.318   5.915   4.830  1.2787 -0.2937  0.1294
   72DOPC   H2X 9841  10.246   5.977   4.772  1.8192  0.4362  0.2154
   72DOPC   H2Y 9842  10.418   5.959   4.810  1.4265 -1.2469 -1.4102
   72DOPC   C23 9843  10.063   6.558   4.897 -0.2728  0.3650 -0.8030
   72DOPC   H3R 9844  10.142   6.526   4.827 -1.6974 -3.2287 -1.0041
   72DOPC   H3S 9845  10.106   6.631   4.969 -1.0332 -0.6383  0.7258
   72DOPC   C24 9846   9.941   6.613   4.825 -0.3305  0.2019  0.2520
   72DOPC   H4R 9847   9.857   6.632   4.894 -1.2442  0.3905 -0.8951
   72DOPC   H4S 9848   9.901   6.532   4.761 -0.2068  0.9705 -0.8314
   72DOPC   C25 9849   9.974   6.744   4.752  0.6397  0.6373 -0.7674
   72DOPC   H5R 9850  10.075   6.739   4.705 -0.0184  1.3496 -2.3178
   72DOPC   H5S 9851   9.971   6.827   4.825 -2.1070  2.5325 -2.8272
   72DOPC   C26 9852   9.866   6.766   4.641  0.1272 -0.0549 -0.5478
   72DOPC   H6R 9853   9.837   6.872   4.625 -2.4112 -0.4831  0.7342
   72DOPC   H6S 9854   9.765   6.723   4.659  0.5420 -0.6566  0.4187
   72DOPC   C27 9855   9.919   6.722   4.504  0.9250 -0.2907 -0.8438
   72DOPC   H7R 9856   9.829   6.701   4.442 -0.5262 -0.9188  1.3642
   72DOPC   H7S 9857   9.973   6.625   4.511 -0.8223 -1.3077 -0.7424
   72DOPC   C28 9858  10.004   6.828   4.431 -0.7159  0.5689  0.3644
   72DOPC   H8R 9859  10.098   6.837   4.490  0.6675 -0.4356 -1.5790
   72DOPC   H8S 9860   9.957   6.928   4.441 -1.1469  0.3313  0.7747
   72DOPC   C29 9861  10.045   6.793   4.285 -0.5041  0.1341 -0.0286
   72DOPC   H9R 9862  10.053   6.684   4.273 -2.2276 -0.0979  0.5223
   72DOPC  C210 9863  10.073   6.874   4.181  0.7394  0.1421 -0.0156
   72DOPC  H10R 9864  10.116   6.830   4.090  0.3715  2.9077 -1.6431
   72DOPC  C211 9865  10.074   7.024   4.192 -0.2021 -0.0343  0.7137
   72DOPC  H11R 9866   9.982   7.056   4.244  0.9191 -0.6102  3.1675
   72DOPC  H11S 9867  10.073   7.074   4.092 -1.6768 -0.1312  0.6592
   72DOPC  C212 9868  10.192   7.083   4.268 -0.0973  0.2696 -0.0686
   72DOPC  H12R 9869  10.273   7.017   4.232  0.9227  2.2214 -1.4808
   72DOPC  H12S 9870  10.182   7.085   4.379  0.8180 -0.6380  0.0397
   72DOPC  C213 9871  10.239   7.225   4.220  1.1688  0.3621  0.1478
   72DOPC  H13R 9872  10.163   7.302   4.244  1.0068  0.3477 -0.3063
   72DOPC  H13S 9873  10.248   7.227   4.109  0.4104  4.0860 -0.0020
   72DOPC  C214 9874  10.367   7.257   4.292 -0.0685 -0.5108 -0.2591
   72DOPC  H14R 9875  10.430   7.329   4.234  0.5647 -1.5502 -0.9035
   72DOPC  H14S 9876  10.430   7.166   4.298 -0.4008 -0.6619  1.3521
   72DOPC  C215 9877  10.352   7.316   4.434 -0.6572 -0.0547  0.1852
   72DOPC  H15R 9878  10.264   7.266   4.481 -1.0059  0.0581 -0.3368
   72DOPC  H15S 9879  10.324   7.422   4.416 -1.0886  0.0360  1.3013
   72DOPC  C216 9880  10.471   7.283   4.530 -0.3865  0.2119  0.4376
   72DOPC  H16R 9881  10.564   7.311   4.475 -0.6693  2.7357  1.1182
   72DOPC  H16S 9882  10.483   7.174   4.550 -0.2669  0.1447 -0.0005
   72DOPC  C217 9883  10.468   7.362   4.654  0.2285 -0.4625 -0.2529
   72DOPC  H17R 9884  10.363   7.347   4.687 -0.0232  1.0693 -0.2967
   72DOPC  H17S 9885  10.467   7.471   4.632 -1.3564 -0.5331 -0.6518
   72DOPC  C218 9886  10.570   7.327   4.763 -0.7159  0.0814 -0.8971
   72DOPC  H18R 9887  10.565   7.391   4.854 -1.4598 -1.6490  0.3480
   72DOPC  H18S 9888  10.673   7.327   4.722 -0.6817 -1.0506 -0.8503
   72DOPC  H18T 9889  10.549   7.227   4.808 -0.8140  1.0568  1.3743
   72DOPC   C33 9890  10.320   5.770   4.780 -0.1620 -0.4859  0.8056
   72DOPC   H3X 9891  10.213   5.745   4.761 -0.2367  0.9573 -0.9029
   72DOPC   H3Y 9892  10.362   5.709   4.863 -1.5570 -1.1833  1.0312
   72DOPC   C34 9893  10.407   5.750   4.662  0.0703  0.8596  0.6142
   72DOPC   H4X 9894  10.408   5.639   4.650 -1.0041  0.8062  0.8641
   72DOPC   H4Y 9895  10.513   5.773   4.686  0.6221 -1.6558  0.9049
   72DOPC   C35 9896  10.359   5.811   4.529 -0.4400 -0.1392 -0.9588
   72DOPC   H5X 9897  10.363   5.921   4.548 -0.9097 -0.2194 -0.3534
   72DOPC   H5Y 9898  10.252   5.783   4.515 -0.2373 -2.4756  1.3184
   72DOPC   C36 9899  10.438   5.769   4.405  0.2851 -0.1743 -0.0452
   72DOPC   H6X 9900  10.549   5.777   4.414  0.3823  1.6273 -2.1020
   72DOPC   H6Y 9901  10.413   5.662   4.392  1.1004 -0.3719 -0.0617
   72DOPC   C37 9902  10.386   5.840   4.279  0.3803 -0.5946 -0.2891
   72DOPC   H7X 9903  10.291   5.788   4.252 -0.0289 -0.3896  0.7029
   72DOPC   H7Y 9904  10.368   5.947   4.305  0.7220 -0.8786  1.2336
   72DOPC   C38 9905  10.481   5.821   4.158 -0.6156 -0.4908 -0.2641
   72DOPC   H8X 9906  10.514   5.716   4.149  0.3180 -0.2091 -0.2299
   72DOPC   H8Y 9907  10.577   5.874   4.176 -1.2020  0.3743  0.4096
   72DOPC   C39 9908  10.413   5.887   4.044  0.5277  0.1520 -0.3959
   72DOPC   H9X 9909  10.402   5.996   4.050 -0.5759  0.3030 -3.3783
   72DOPC  C310 9910  10.367   5.824   3.935  0.6852 -0.0565  0.1207
   72DOPC  H10X 9911  10.337   5.892   3.854 -0.9563  0.3007  0.9745
   72DOPC  C311 9912  10.356   5.675   3.912 -0.0887  0.1651 -0.3822
   72DOPC  H11X 9913  10.455   5.628   3.924  0.0564  0.9519  2.1956
   72DOPC  H11Y 9914  10.330   5.665   3.804  2.3544  2.2945 -1.2729
   72DOPC  C312 9915  10.244   5.603   4.002 -0.0318 -0.7247 -0.1184
   72DOPC  H12X 9916  10.252   5.622   4.112 -1.3791 -2.4291  0.3183
   72DOPC  H12Y 9917  10.259   5.494   3.998 -0.9754 -0.8497 -0.4145
   72DOPC  C313 9918  10.099   5.652   3.971 -0.0866 -0.1820 -0.5421
   72DOPC  H13X 9919  10.038   5.615   4.056 -0.0414 -0.7073 -0.7324
   72DOPC  H13Y 9920  10.105   5.763   3.979  0.2862 -0.3144  1.5883
   72DOPC  C314 9921  10.044   5.594   3.848 -0.6226 -0.3785  0.0952
   72DOPC  H14X 9922  10.108   5.615   3.760  4.2266 -1.8400  2.9518
   72DOPC  H14Y 9923  10.049   5.483   3.855 -1.4393 -0.3904  0.6665
   72DOPC  C315 9924   9.897   5.638   3.831  0.1037 -0.2706 -0.0263
   72DOPC  H15X 9925   9.898   5.741   3.790 -0.4383 -0.6532 -1.0347
   72DOPC  H15Y 9926   9.844   5.640   3.929 -0.1660 -2.8694 -0.0617
   72DOPC  C316 9927   9.814   5.550   3.732 -0.9404  0.3129 -0.0239
   72DOPC  H16X 9928   9.880   5.542   3.643 -1.2155  3.2355 -0.5925
   72DOPC  H16Y 9929   9.797   5.444   3.763  1.4400 -1.0742 -2.9139
   72DOPC  C317 9930   9.678   5.615   3.695  0.7152 -0.6467 -0.4256
   72DOPC  H17X 9931   9.613   5.591   3.781  0.1510  0.9888 -0.3717
   72DOPC  H17Y 9932   9.679   5.725   3.678  1.4576 -0.7699 -1.3121
   72DOPC  C318 9933   9.613   5.546   3.576  0.1195  0.4222  0.3485
   72DOPC  H18X 9934   9.510   5.584   3.560 -1.3479 -3.2721 -0.0736
   72DOPC  H18Y 9935   9.682   5.568   3.492  0.6312  1.4055  1.0006
   72DOPC  H18Z 9936   9.603   5.440   3.607  1.1183  0.9079  2.5238
   73DOPC     N 9937   1.752   5.429   6.301  0.4674 -1.1406  0.3206
   73DOPC   C12 9938   1.711   5.523   6.187 -1.1350  0.6244 -0.1523
   73DOPC  H12A 9939   1.673   5.619   6.219 -0.5439  0.5999  0.6492
   73DOPC  H12B 9940   1.633   5.468   6.136 -1.6522 -0.3038  1.5703
   73DOPC   C13 9941   1.629   5.414   6.383  0.0537  0.0127  0.8962
   73DOPC  H13A 9942   1.629   5.331   6.453 -2.4415 -1.2348 -0.4626
   73DOPC  H13B 9943   1.616   5.512   6.428 -1.4317 -0.1606  0.8961
   73DOPC  H13C 9944   1.541   5.399   6.322 -0.5719 -2.8603  2.3372
   73DOPC   C14 9945   1.853   5.489   6.390  0.8056 -0.6116  0.2755
   73DOPC  H14A 9946   1.936   5.516   6.327 -0.4162 -0.8205 -1.4987
   73DOPC  H14B 9947   1.817   5.587   6.418  1.0052 -0.0996 -1.1868
   73DOPC  H14C 9948   1.882   5.435   6.479 -1.4053 -0.5903  1.0828
   73DOPC   C15 9949   1.806   5.299   6.255 -0.2441 -0.5247  0.4980
   73DOPC  H15A 9950   1.758   5.257   6.168 -0.2493 -0.5276  0.5025
   73DOPC  H15B 9951   1.791   5.229   6.335  0.0816 -2.1667 -0.8104
   73DOPC  H15C 9952   1.908   5.313   6.222 -0.2289  0.2673  0.8658
   73DOPC   C11 9953   1.824   5.549   6.080  0.6352 -0.2490 -0.3982
   73DOPC  H11A 9954   1.863   5.447   6.056 -1.9957 -0.8280 -2.7538
   73DOPC  H11B 9955   1.765   5.595   5.998 -1.6592 -0.8366  0.8538
   73DOPC     P 9956   1.914   5.785   6.159 -0.0823 -0.1383  0.7607
   73DOPC   O13 9957   2.046   5.838   6.216 -0.3048  0.5814 -0.1301
   73DOPC   O14 9958   1.799   5.818   6.241  1.0914 -0.5311 -0.3912
   73DOPC   O12 9959   1.926   5.628   6.136 -0.4927 -0.3482  0.0225
   73DOPC   O11 9960   1.886   5.853   6.010  0.4182  0.1374  0.0244
   73DOPC    C1 9961   1.978   5.816   5.907  0.3181  0.4471 -0.1093
   73DOPC    HA 9962   1.960   5.707   5.896 -2.4215  0.9700 -1.5927
   73DOPC    HB 9963   2.085   5.841   5.928 -0.2355  2.5151  0.4195
   73DOPC    C2 9964   1.941   5.885   5.774  0.1400 -0.3978  0.8096
   73DOPC    HS 9965   1.830   5.885   5.776  0.1475 -0.0439  1.5469
   73DOPC   O21 9966   1.990   5.808   5.663 -0.5928  0.1819  0.2966
   73DOPC   C21 9967   1.918   5.801   5.553  0.0304 -0.1801  0.1154
   73DOPC   O22 9968   1.809   5.857   5.535 -0.1746  0.4083 -0.0049
   73DOPC   C22 9969   1.997   5.729   5.441 -0.3667 -0.2737  0.4461
   73DOPC   H2R 9970   1.931   5.651   5.396 -0.5275 -1.3833  2.4696
   73DOPC   H2S 9971   2.092   5.698   5.489  0.0015 -0.9805 -0.6919
   73DOPC    C3 9972   1.994   6.032   5.780  0.0500 -0.7976 -0.1023
   73DOPC    HX 9973   2.104   6.030   5.769  0.0324 -1.0119 -0.2458
   73DOPC    HY 9974   1.977   6.069   5.883 -2.0091  1.8811 -1.2649
   73DOPC   O31 9975   1.931   6.113   5.676 -0.8095  0.4480  0.2542
   73DOPC   C31 9976   1.801   6.132   5.687  0.3185  0.8219 -0.0050
   73DOPC   O32 9977   1.733   6.093   5.781  0.1578  0.3409  0.2531
   73DOPC   C32 9978   1.755   6.228   5.582 -0.3428  0.4807  0.5955
   73DOPC   H2X 9979   1.713   6.312   5.640 -0.1704  0.4193  0.8104
   73DOPC   H2Y 9980   1.832   6.280   5.521 -0.7318  0.0838 -0.2523
   73DOPC   C23 9981   2.037   5.827   5.329 -0.6026  0.8820  0.0241
   73DOPC   H3R 9982   2.115   5.778   5.266  1.2697  0.9711  2.1203
   73DOPC   H3S 9983   2.089   5.914   5.375  0.2375  1.1509 -1.3693
   73DOPC   C24 9984   1.925   5.888   5.250  0.3996  0.0308  0.1689
   73DOPC   H4R 9985   1.856   5.936   5.322  0.8412  0.5682  0.2384
   73DOPC   H4S 9986   1.867   5.807   5.200  0.8682  0.6524 -1.4567
   73DOPC   C25 9987   1.963   5.972   5.130 -0.1546 -0.2229 -0.1964
   73DOPC   H5R 9988   2.029   5.923   5.054 -1.2735  1.3974 -2.3354
   73DOPC   H5S 9989   2.024   6.061   5.155  2.1397 -1.7434 -0.0919
   73DOPC   C26 9990   1.843   6.014   5.048 -0.2680 -0.1549 -0.4165
   73DOPC   H6R 9991   1.769   6.067   5.111  0.6552 -0.7602  1.2441
   73DOPC   H6S 9992   1.794   5.920   5.015  1.6079 -1.1982 -0.3772
   73DOPC   C27 9993   1.875   6.088   4.916 -0.2674  0.2235  0.6530
   73DOPC   H7R 9994   1.968   6.042   4.878 -1.9519 -1.8679 -1.2674
   73DOPC   H7S 9995   1.893   6.193   4.945 -1.0214  0.9846 -1.4477
   73DOPC   C28 9996   1.779   6.066   4.796 -0.0390  0.6517 -0.2813
   73DOPC   H8R 9997   1.677   6.053   4.837 -0.5115 -1.2861 -1.8763
   73DOPC   H8S 9998   1.798   5.964   4.755 -0.9118  0.7734 -1.0090
   73DOPC   C29 9999   1.772   6.182   4.694  0.1038  0.4952 -1.2179
   73DOPC   H9R10000   1.757   6.281   4.739 -1.8151 -0.0804 -0.5032
   73DOPC  C21010001   1.805   6.178   4.568  0.0063 -0.1758 -0.2605
   73DOPC  H10R10002   1.787   6.272   4.515  1.0803 -0.5750 -1.3871
   73DOPC  C21110003   1.845   6.058   4.489  0.1855 -0.3005 -0.0591
   73DOPC  H11R10004   1.867   5.966   4.547 -0.8545  0.5991  1.8480
   73DOPC  H11S10005   1.938   6.081   4.433  0.5661  1.0211  1.0783
   73DOPC  C21210006   1.736   6.016   4.387 -0.4504 -0.4438  0.2082
   73DOPC  H12R10007   1.706   6.102   4.323 -0.5356  0.5586  1.5438
   73DOPC  H12S10008   1.644   5.986   4.442  0.7897 -1.3671  1.8630
   73DOPC  C21310009   1.792   5.903   4.295 -0.1291 -0.2385 -0.3377
   73DOPC  H13R10010   1.823   5.818   4.360  0.9347 -0.4012 -1.0402
   73DOPC  H13S10011   1.880   5.939   4.239 -0.3319  1.9322  0.6262
   73DOPC  C21410012   1.687   5.848   4.197 -0.2169  0.9944 -0.6552
   73DOPC  H14R10013   1.597   5.822   4.256  0.7940  0.1753  0.6031
   73DOPC  H14S10014   1.721   5.753   4.149  1.3272  0.5603  1.1679
   73DOPC  C21510015   1.644   5.938   4.081  0.1667  0.1293  0.3525
   73DOPC  H15R10016   1.730   5.949   4.011  0.3827 -0.6118  0.4946
   73DOPC  H15S10017   1.633   6.041   4.120 -0.2975  0.7000 -1.2050
   73DOPC  C21610018   1.518   5.894   4.009 -0.1482 -0.7039  0.3219
   73DOPC  H16R10019   1.524   5.785   3.987  0.5651 -0.2324 -2.1238
   73DOPC  H16S10020   1.517   5.955   3.916  0.8113 -1.9398 -0.5420
   73DOPC  C21710021   1.385   5.930   4.078  0.1953 -0.1583 -0.0168
   73DOPC  H17R10022   1.389   6.039   4.094 -1.7764 -0.2500  1.3947
   73DOPC  H17S10023   1.384   5.876   4.176  0.3769 -2.0955 -1.0339
   73DOPC  C21810024   1.268   5.887   3.993  0.5008 -0.1357  0.1812
   73DOPC  H18R10025   1.167   5.913   4.034  1.1372  0.8975  1.1455
   73DOPC  H18S10026   1.284   5.779   3.974  2.5030  0.3145 -0.9084
   73DOPC  H18T10027   1.279   5.929   3.891  2.6176  0.4317  0.5923
   73DOPC   C3310028   1.637   6.189   5.497  0.1632  0.0341  0.3156
   73DOPC   H3X10029   1.580   6.108   5.547 -0.4318  0.7113  0.7530
   73DOPC   H3Y10030   1.677   6.154   5.399  0.3875  0.4673  0.2523
   73DOPC   C3410031   1.532   6.300   5.474 -0.5422 -1.1413 -0.1964
   73DOPC   H4X10032   1.488   6.325   5.573 -2.8379  2.0525 -1.8599
   73DOPC   H4Y10033   1.448   6.270   5.408 -0.5542 -1.2618 -0.1277
   73DOPC   C3510034   1.615   6.415   5.411  0.5294 -0.1626  0.3620
   73DOPC   H5X10035   1.719   6.384   5.389 -0.2653 -3.9042  1.2671
   73DOPC   H5Y10036   1.619   6.503   5.479  0.6547  0.4309 -0.4005
   73DOPC   C3610037   1.550   6.460   5.272 -0.4016  0.2814 -0.1771
   73DOPC   H6X10038   1.442   6.483   5.286 -0.6146  0.5085 -1.9531
   73DOPC   H6Y10039   1.602   6.555   5.244 -2.1156  2.0588  2.2586
   73DOPC   C3710040   1.571   6.363   5.156  0.1554 -0.2624 -0.7389
   73DOPC   H7X10041   1.677   6.333   5.163  0.6900  1.5932 -0.4015
   73DOPC   H7Y10042   1.523   6.264   5.170  1.9831 -1.1605 -0.5484
   73DOPC   C3810043   1.553   6.441   5.026 -0.4389 -1.0339  0.2262
   73DOPC   H8X10044   1.610   6.379   4.952 -2.0491 -0.8324 -1.2457
   73DOPC   H8Y10045   1.599   6.541   5.040  2.2628 -2.3267  1.3713
   73DOPC   C3910046   1.416   6.467   4.986  0.2491 -0.1554 -0.2737
   73DOPC   H9X10047   1.343   6.477   5.068 -3.4148 -2.0720 -3.0140
   73DOPC  C31010048   1.380   6.486   4.861 -0.1727  0.1199  0.1522
   73DOPC  H10X10049   1.275   6.509   4.837  0.3969  0.4795 -2.3533
   73DOPC  C31110050   1.470   6.478   4.734 -0.1965  0.3896 -0.2051
   73DOPC  H11X10051   1.573   6.444   4.755 -0.1002  1.5464  1.3415
   73DOPC  H11Y10052   1.482   6.578   4.687 -0.6147  0.6160  0.1656
   73DOPC  C31210053   1.399   6.389   4.632 -0.1516 -0.4808  0.5080
   73DOPC  H12X10054   1.364   6.305   4.697  1.0523 -0.9691  0.5605
   73DOPC  H12Y10055   1.485   6.353   4.571  0.7764 -0.2774  1.6614
   73DOPC  C31310056   1.296   6.455   4.541  0.3303  0.0426  0.4929
   73DOPC  H13X10057   1.195   6.471   4.585 -0.2494  0.1758 -0.8349
   73DOPC  H13Y10058   1.314   6.556   4.499 -0.8641  0.5705  1.1972
   73DOPC  C31410059   1.260   6.362   4.426 -1.0120 -0.0923  1.0356
   73DOPC  H14X10060   1.210   6.269   4.459 -0.4440 -1.6700 -2.2155
   73DOPC  H14Y10061   1.189   6.414   4.359 -0.9830 -0.5229  0.6762
   73DOPC  C31510062   1.381   6.335   4.335 -0.4904 -0.2026  0.7618
   73DOPC  H15X10063   1.439   6.242   4.358  1.8945  0.7914 -0.8406
   73DOPC  H15Y10064   1.454   6.415   4.356  0.1377 -0.0988 -1.5209
   73DOPC  C31610065   1.347   6.333   4.191  0.3438  0.3583  0.1981
   73DOPC  H16X10066   1.429   6.288   4.132 -0.4920 -1.4792  0.3775
   73DOPC  H16Y10067   1.250   6.282   4.173 -0.6415  2.8525 -2.3218
   73DOPC  C31710068   1.335   6.476   4.143  0.1235 -0.1438  0.5031
   73DOPC  H17X10069   1.263   6.534   4.205  0.9454  2.2227 -0.6370
   73DOPC  H17Y10070   1.434   6.523   4.155  0.0851 -0.4820  2.4571
   73DOPC  C31810071   1.289   6.473   3.998  0.3914 -0.0073 -1.1321
   73DOPC  H18X10072   1.184   6.439   4.000  0.6612 -0.8445  0.7096
   73DOPC  H18Y10073   1.308   6.577   3.965  0.1948  0.9475  1.5547
   73DOPC  H18Z10074   1.358   6.403   3.945  0.1718 -1.9452  0.9894
   74DOPC     N10075   1.138   2.554   6.272 -0.1897 -0.3080  0.6453
   74DOPC   C1210076   1.177   2.538   6.128 -0.1978  0.5309 -0.5208
   74DOPC  H12A10077   1.125   2.448   6.098  0.7784  0.1498 -1.0945
   74DOPC  H12B10078   1.282   2.524   6.108 -0.8939 -1.5106 -3.4253
   74DOPC   C1310079   0.986   2.553   6.291 -0.7401  0.1181 -0.1064
   74DOPC  H13A10080   0.965   2.568   6.396 -0.4603  2.9953 -0.3867
   74DOPC  H13B10081   0.933   2.632   6.239 -3.5031 -1.0423  0.7623
   74DOPC  H13C10082   0.950   2.458   6.256  0.3372 -0.0561 -0.8049
   74DOPC   C1410083   1.193   2.685   6.321 -0.0989  0.0667  0.3157
   74DOPC  H14A10084   1.299   2.674   6.336 -0.2547 -0.0425  1.3999
   74DOPC  H14B10085   1.184   2.763   6.247  0.3213 -1.6483 -1.6333
   74DOPC  H14C10086   1.154   2.721   6.416 -0.2117 -0.5730  0.5152
   74DOPC   C1510087   1.217   2.445   6.353  0.0816  0.1458  0.1404
   74DOPC  H15A10088   1.203   2.349   6.307  0.2907  1.0198 -1.8528
   74DOPC  H15B10089   1.190   2.443   6.458  1.9741  0.8609  0.6749
   74DOPC  H15C10090   1.320   2.477   6.356  0.0719  0.1165  1.8767
   74DOPC   C1110091   1.140   2.652   6.030  0.6458 -0.1939 -0.0455
   74DOPC  H11A10092   1.148   2.618   5.924  1.0162  0.3430 -0.1978
   74DOPC  H11B10093   1.031   2.666   6.043  0.3387 -1.5623 -1.0191
   74DOPC     P10094   1.347   2.806   5.980 -0.3888 -0.4273  0.2263
   74DOPC   O1310095   1.455   2.714   6.033 -0.2464  0.3727  0.6496
   74DOPC   O1410096   1.372   2.953   5.988 -0.3055 -0.1747 -0.4048
   74DOPC   O1210097   1.210   2.776   6.053 -0.0701 -0.2720 -0.2523
   74DOPC   O1110098   1.304   2.763   5.833 -0.3969  0.3654 -0.5862
   74DOPC    C110099   1.417   2.739   5.745  0.3841  0.1012  0.3861
   74DOPC    HA10100   1.455   2.639   5.777 -0.2154 -0.1973  0.1671
   74DOPC    HB10101   1.503   2.810   5.747  0.5658 -0.0747 -0.8308
   74DOPC    C210102   1.374   2.729   5.596  0.0126 -0.9031  0.0683
   74DOPC    HS10103   1.323   2.823   5.569 -0.8667 -2.0501 -2.5629
   74DOPC   O2110104   1.293   2.621   5.580 -0.1576  0.6928 -0.1673
   74DOPC   C2110105   1.207   2.609   5.485 -0.4151 -0.0774 -0.2042
   74DOPC   O2210106   1.182   2.687   5.396 -0.4233 -0.8554  0.1837
   74DOPC   C2210107   1.138   2.479   5.504 -0.5716 -0.7236  0.1882
   74DOPC   H2R10108   1.031   2.502   5.525 -0.2810 -0.7621  1.8537
   74DOPC   H2S10109   1.166   2.437   5.603 -0.1402  0.1409  0.4509
   74DOPC    C310110   1.506   2.710   5.517  0.2785  0.5101  0.2217
   74DOPC    HX10111   1.550   2.611   5.543 -0.6829  0.5850  2.4211
   74DOPC    HY10112   1.573   2.790   5.554 -1.2397  1.4353  1.0721
   74DOPC   O3110113   1.482   2.723   5.372  0.6268  0.2891 -0.0175
   74DOPC   C3110114   1.477   2.604   5.309  1.0191  0.6527  0.3883
   74DOPC   O3210115   1.499   2.493   5.355  0.2546 -0.4755  0.3162
   74DOPC   C3210116   1.445   2.625   5.164  0.1429  0.2832  0.4677
   74DOPC   H2X10117   1.339   2.656   5.157  0.7646  2.1633 -1.5950
   74DOPC   H2Y10118   1.497   2.715   5.125  0.9631 -1.1072 -1.8507
   74DOPC   C2310119   1.167   2.381   5.389 -0.7171 -0.2932 -0.0784
   74DOPC   H3R10120   1.120   2.282   5.408 -1.6052  0.1678  0.1827
   74DOPC   H3S10121   1.276   2.356   5.390 -0.7471 -0.5169  1.6374
   74DOPC   C2410122   1.123   2.426   5.252  0.5509 -0.1777  0.5178
   74DOPC   H4R10123   1.173   2.521   5.225  1.7422 -0.6974  0.8039
   74DOPC   H4S10124   1.014   2.444   5.243  0.4972 -0.1226  1.2375
   74DOPC   C2510125   1.164   2.319   5.153  0.2584  0.0243  0.5773
   74DOPC   H5R10126   1.104   2.225   5.155 -0.5445  0.5236  0.3208
   74DOPC   H5S10127   1.270   2.290   5.169  0.3375  0.0239  0.0771
   74DOPC   C2610128   1.158   2.370   5.008 -0.3111 -0.1222 -0.4331
   74DOPC   H6R10129   1.234   2.305   4.959 -0.7698 -0.1446 -1.1292
   74DOPC   H6S10130   1.196   2.474   5.007 -1.5774  0.3836  0.9686
   74DOPC   C2710131   1.038   2.363   4.926  0.2599  0.3397 -0.0558
   74DOPC   H7R10132   0.967   2.439   4.966  2.1257  0.0459  4.3972
   74DOPC   H7S10133   1.009   2.257   4.943  0.2951  0.2726 -0.4099
   74DOPC   C2810134   1.064   2.400   4.776 -0.7093 -0.3575  0.3764
   74DOPC   H8R10135   0.978   2.361   4.718 -0.7020 -1.3554  1.0238
   74DOPC   H8S10136   1.152   2.347   4.736 -0.9637  0.5926 -1.5608
   74DOPC   C2910137   1.086   2.547   4.753 -0.4263  0.2772  1.0716
   74DOPC   H9R10138   1.128   2.601   4.839  0.0041  2.6820 -0.5451
   74DOPC  C21010139   1.064   2.613   4.639 -0.2239  0.2411  0.2303
   74DOPC  H10R10140   1.067   2.723   4.640 -3.0770  0.4130 -0.8837
   74DOPC  C21110141   1.009   2.548   4.517  0.1232  0.1891  0.0480
   74DOPC  H11R10142   0.935   2.609   4.461  0.2689 -0.1136 -0.4883
   74DOPC  H11S10143   0.960   2.450   4.536  1.3903 -0.7082 -1.1194
   74DOPC  C21210144   1.122   2.510   4.412  0.0060 -0.7102 -0.6035
   74DOPC  H12R10145   1.185   2.600   4.395 -2.0479  0.7887 -0.6647
   74DOPC  H12S10146   1.073   2.482   4.317  0.9676 -1.6528 -0.8479
   74DOPC  C21310147   1.213   2.385   4.449 -0.3804 -0.0574 -0.5367
   74DOPC  H13R10148   1.145   2.299   4.468  0.7078 -1.0342 -0.9303
   74DOPC  H13S10149   1.273   2.404   4.540 -0.3169 -2.3760 -0.0511
   74DOPC  C21410150   1.312   2.336   4.337 -0.0757 -0.9716 -0.1121
   74DOPC  H14R10151   1.407   2.389   4.358 -1.3688  2.1325 -1.5814
   74DOPC  H14S10152   1.289   2.357   4.230  1.0108  0.9514 -0.0090
   74DOPC  C21510153   1.342   2.191   4.353 -0.7498 -0.4169  0.0533
   74DOPC  H15R10154   1.409   2.162   4.269 -0.2976 -0.1267  0.3073
   74DOPC  H15S10155   1.245   2.140   4.337 -1.3592  0.7533 -0.0416
   74DOPC  C21610156   1.397   2.145   4.486 -0.4225 -0.7976 -0.4171
   74DOPC  H16R10157   1.333   2.180   4.570 -0.3406 -1.6401  0.0044
   74DOPC  H16S10158   1.496   2.194   4.497 -1.2390  0.9972 -0.6168
   74DOPC  C21710159   1.422   1.992   4.495  0.2051  0.0169  0.7410
   74DOPC  H17R10160   1.469   1.958   4.400  1.1872 -1.6341  1.7601
   74DOPC  H17S10161   1.319   1.950   4.499  0.2991 -0.7062 -2.1703
   74DOPC  C21810162   1.500   1.949   4.614  0.2517  1.1259 -0.0304
   74DOPC  H18R10163   1.600   1.995   4.600  0.4211  0.0523 -3.1503
   74DOPC  H18S10164   1.514   1.838   4.610  0.8241  1.2182 -0.7982
   74DOPC  H18T10165   1.448   1.994   4.701 -0.7292  1.3508 -0.7180
   74DOPC   C3310166   1.487   2.515   5.057  0.2092  0.1002  0.1998
   74DOPC   H3X10167   1.423   2.428   5.083 -0.9543  0.9940  0.4398
   74DOPC   H3Y10168   1.593   2.485   5.069  0.0418 -0.8557 -0.5619
   74DOPC   C3410169   1.461   2.562   4.914 -0.4441  0.0329 -0.1205
   74DOPC   H4X10170   1.357   2.601   4.909  0.0101  1.1769 -2.4547
   74DOPC   H4Y10171   1.461   2.480   4.839  0.7689  0.4669 -0.6339
   74DOPC   C3510172   1.557   2.667   4.862  0.0952  0.1476 -1.0645
   74DOPC   H5X10173   1.656   2.642   4.906  0.0593  1.7303 -0.0164
   74DOPC   H5Y10174   1.536   2.772   4.893 -1.2634  0.5168 -3.0310
   74DOPC   C3610175   1.574   2.670   4.712 -0.9114 -0.2882  0.2925
   74DOPC   H6X10176   1.610   2.575   4.667 -1.9429 -0.1445 -0.8728
   74DOPC   H6Y10177   1.470   2.677   4.675 -0.8425  0.9788  0.2931
   74DOPC   C3710178   1.663   2.791   4.674  0.4482 -0.0940 -0.1753
   74DOPC   H7X10179   1.608   2.887   4.682 -1.5639 -1.1278 -0.9463
   74DOPC   H7Y10180   1.750   2.789   4.743  0.2315 -0.7413  0.0909
   74DOPC   C3810181   1.704   2.788   4.518 -0.1928  0.3122  0.0082
   74DOPC   H8X10182   1.746   2.888   4.496 -1.3689  1.0112  0.8235
   74DOPC   H8Y10183   1.620   2.764   4.450 -0.0504 -0.0781 -0.0342
   74DOPC   C3910184   1.819   2.685   4.512  0.4365 -0.3851 -1.4446
   74DOPC   H9X10185   1.914   2.727   4.548 -0.0754  1.3363 -1.9849
   74DOPC  C31010186   1.807   2.553   4.476  0.3512  0.8423  0.2712
   74DOPC  H10X10187   1.904   2.500   4.477  1.6433  3.0742  1.4604
   74DOPC  C31110188   1.679   2.490   4.421 -0.3631 -0.4621  0.0443
   74DOPC  H11X10189   1.593   2.559   4.406  0.2280  0.8288  2.1616
   74DOPC  H11Y10190   1.647   2.419   4.499 -1.8617  0.7245  0.5559
   74DOPC  C31210191   1.695   2.415   4.289  0.4470  0.5070  0.0900
   74DOPC  H12X10192   1.596   2.374   4.259  0.0691  0.7708  0.9583
   74DOPC  H12Y10193   1.761   2.328   4.312 -1.1041 -0.4455  1.1482
   74DOPC  C31310194   1.751   2.508   4.178  0.0884  0.1809  0.0338
   74DOPC  H13X10195   1.688   2.599   4.167  0.9623  0.7485 -0.3815
   74DOPC  H13Y10196   1.849   2.550   4.209  1.2316 -1.0157 -1.7665
   74DOPC  C31410197   1.765   2.440   4.041  0.2628  0.5557  0.3747
   74DOPC  H14X10198   1.812   2.343   4.067 -0.9151 -0.5200 -1.3302
   74DOPC  H14Y10199   1.669   2.414   3.991  0.2025  0.4334  0.5505
   74DOPC  C31510200   1.842   2.514   3.938 -0.8619  0.2652 -0.5086
   74DOPC  H15X10201   1.947   2.522   3.975 -0.6415 -1.4823 -0.6742
   74DOPC  H15Y10202   1.810   2.620   3.928  2.4120  1.4723  0.5136
   74DOPC  C31610203   1.856   2.437   3.807 -0.0755  0.0779  0.4090
   74DOPC  H16X10204   1.890   2.504   3.725  1.2465 -0.6237  0.3639
   74DOPC  H16Y10205   1.932   2.357   3.819 -0.6269 -0.3461  1.1787
   74DOPC  C31710206   1.734   2.365   3.760 -0.6230 -0.2345  0.7829
   74DOPC  H17X10207   1.769   2.315   3.667  1.1146  1.2611  0.5702
   74DOPC  H17Y10208   1.687   2.289   3.826 -0.7698  0.2700  1.2651
   74DOPC  C31810209   1.620   2.458   3.704  0.7790 -0.0159  0.1835
   74DOPC  H18X10210   1.586   2.528   3.784  3.0718  1.1811  0.1982
   74DOPC  H18Y10211   1.652   2.505   3.609 -1.6968 -0.8280 -1.1287
   74DOPC  H18Z10212   1.527   2.405   3.675  0.5469  0.6854 -0.4040
   75DOPC     N10213  11.146   6.265   6.024 -0.4943 -0.1443 -0.0619
   75DOPC   C1210214  11.143   6.209   5.883  0.6628 -0.4350  0.2224
   75DOPC  H12A10215  11.191   6.113   5.888  0.6814 -0.3642  2.8056
   75DOPC  H12B10216  11.215   6.269   5.830 -0.6005  1.2316  0.3159
   75DOPC   C1310217  11.285   6.253   6.075 -1.0803 -0.1777  0.4397
   75DOPC  H13A10218  11.294   6.151   6.111 -2.5050  0.1418  1.8689
   75DOPC  H13B10219  11.360   6.272   6.001 -0.6730  1.7283  1.2913
   75DOPC  H13C10220  11.310   6.318   6.158 -2.4302  2.1763 -0.8883
   75DOPC   C1410221  11.041   6.211   6.117  0.5222 -0.7853  0.0944
   75DOPC  H14A10222  10.940   6.229   6.082  0.0643  0.5997  1.9389
   75DOPC  H14B10223  11.069   6.110   6.141  0.6385 -0.6204  0.6594
   75DOPC  H14C10224  11.039   6.273   6.206  1.5887 -0.3690 -0.1582
   75DOPC   C1510225  11.113   6.413   6.014 -0.7681  0.5288 -0.6106
   75DOPC  H15A10226  11.184   6.452   5.942 -0.3799 -1.0772 -1.1387
   75DOPC  H15B10227  11.116   6.456   6.113 -3.4266  1.0579 -0.6957
   75DOPC  H15C10228  11.010   6.428   5.986 -0.8702  3.6136  0.9613
   75DOPC   C1110229  11.007   6.204   5.807 -0.2753  0.0724 -0.4650
   75DOPC  H11A10230  11.026   6.159   5.707  1.0292  0.9476 -0.6460
   75DOPC  H11B10231  10.938   6.135   5.860  2.2589 -2.3984 -0.1100
   75DOPC     P10232  10.956   6.404   5.648 -0.0599  0.0597  0.1660
   75DOPC   O1310233  11.092   6.405   5.605 -0.9623 -0.0980  0.4998
   75DOPC   O1410234  10.890   6.536   5.648  0.2566 -0.6222  0.1315
   75DOPC   O1210235  10.949   6.336   5.789 -0.4566  0.3252 -0.1978
   75DOPC   O1110236  10.883   6.292   5.555  0.2042 -0.7366 -0.2329
   75DOPC    C110237  10.739   6.287   5.565  0.7951  0.6601  0.0331
   75DOPC    HA10238  10.686   6.377   5.603  0.7209 -0.0657  1.7699
   75DOPC    HB10239  10.709   6.197   5.624 -1.8274  0.9800 -0.6813
   75DOPC    C210240  10.682   6.261   5.425 -0.5925  0.4945 -0.0318
   75DOPC    HS10241  10.571   6.271   5.427 -0.4489  2.6189  0.8449
   75DOPC   O2110242  10.732   6.132   5.380 -0.3940  0.1638  0.3638
   75DOPC   C2110243  10.644   6.029   5.394 -0.3587  0.2837  0.0610
   75DOPC   O2210244  10.529   6.043   5.432  0.0513  0.0407 -1.2944
   75DOPC   C2210245  10.714   5.893   5.357  0.4489  0.0306  0.4067
   75DOPC   H2R10246  10.719   5.819   5.439 -0.6973  0.3078  0.7449
   75DOPC   H2S10247  10.817   5.908   5.318 -0.3430 -1.1489 -2.4129
   75DOPC    C310248  10.743   6.360   5.329  0.9123 -0.1296 -0.0569
   75DOPC    HX10249  10.854   6.352   5.323  0.8269 -0.5175 -3.1173
   75DOPC    HY10250  10.727   6.464   5.364  0.4976 -0.7127  1.5330
   75DOPC   O3110251  10.686   6.359   5.194  0.5685 -0.0347 -0.6840
   75DOPC   C3110252  10.768   6.324   5.094  0.2725 -1.0032 -0.0298
   75DOPC   O3210253  10.883   6.305   5.105 -0.2194  0.3351 -0.2331
   75DOPC   C3210254  10.689   6.325   4.963  0.3163 -0.1746 -0.1506
   75DOPC   H2X10255  10.750   6.290   4.878  0.3349  0.7643 -0.5349
   75DOPC   H2Y10256  10.598   6.265   4.985 -0.1082  0.6973  0.5791
   75DOPC   C2310257  10.621   5.817   5.258 -0.7892 -0.1292 -0.1266
   75DOPC   H3R10258  10.517   5.809   5.299 -0.2172 -1.0017  1.2266
   75DOPC   H3S10259  10.666   5.717   5.240 -0.0164  0.0692  0.6319
   75DOPC   C2410260  10.602   5.875   5.113  0.0459 -0.0226  0.4791
   75DOPC   H4R10261  10.547   5.971   5.121 -0.5200 -0.2249 -0.6541
   75DOPC   H4S10262  10.535   5.811   5.049  0.0209  1.0340 -0.5888
   75DOPC   C2510263  10.735   5.914   5.034 -0.4740  0.5289 -0.4329
   75DOPC   H5R10264  10.810   5.833   5.049  0.1521  0.8196 -1.7874
   75DOPC   H5S10265  10.790   5.994   5.088  0.9494 -1.4406  1.2286
   75DOPC   C2610266  10.720   5.936   4.890 -0.5205 -0.7765  0.2185
   75DOPC   H6R10267  10.638   6.009   4.870  0.5771  0.2442 -0.6708
   75DOPC   H6S10268  10.699   5.839   4.840 -3.0152  1.1933 -2.9868
   75DOPC   C2710269  10.837   5.993   4.809 -0.0091  0.2371 -0.4611
   75DOPC   H7R10270  10.924   5.925   4.799  0.6145  0.8066  0.7745
   75DOPC   H7S10271  10.872   6.082   4.866 -0.2705  1.4543 -2.1291
   75DOPC   C2810272  10.784   6.046   4.672 -0.3128 -0.4936  0.0361
   75DOPC   H8R10273  10.867   6.113   4.640  0.6779 -1.8531 -0.3536
   75DOPC   H8S10274  10.691   6.105   4.683 -0.9852 -1.1061 -1.9182
   75DOPC   C2910275  10.758   5.937   4.573 -0.2344  0.7293 -0.5235
   75DOPC   H9R10276  10.701   5.852   4.613 -0.5467  0.6335 -1.1583
   75DOPC  C21010277  10.800   5.928   4.448 -0.1011  0.3499  0.3995
   75DOPC  H10R10278  10.772   5.844   4.383 -0.5315  0.4513  0.4515
   75DOPC  C21110279  10.869   6.036   4.375 -0.2874 -0.0466  0.6779
   75DOPC  H11R10280  10.966   5.998   4.336 -0.7037 -1.1990  0.7424
   75DOPC  H11S10281  10.903   6.113   4.448  0.7294  0.3721 -0.2167
   75DOPC  C21210282  10.798   6.106   4.253  0.6142 -0.0608  0.2571
   75DOPC  H12R10283  10.755   6.022   4.195  1.1631 -1.0985  1.2928
   75DOPC  H12S10284  10.869   6.162   4.189 -1.6524  1.4278 -1.1013
   75DOPC  C21310285  10.684   6.189   4.305 -0.1622 -0.0372  0.2393
   75DOPC  H13R10286  10.701   6.250   4.396  0.1428  1.9961 -1.1103
   75DOPC  H13S10287  10.604   6.121   4.342 -0.0806 -0.7394 -0.7971
   75DOPC  C21410288  10.632   6.297   4.203  0.2979  0.2278 -0.0651
   75DOPC  H14R10289  10.714   6.366   4.173  0.3931 -0.4109 -1.3446
   75DOPC  H14S10290  10.549   6.357   4.246 -0.4909 -1.5529  1.0139
   75DOPC  C21510291  10.583   6.229   4.080  0.0017  0.6648  0.0841
   75DOPC  H15R10292  10.501   6.160   4.111 -0.8635  0.9827 -1.3789
   75DOPC  H15S10293  10.662   6.163   4.039 -1.1756  0.0458 -1.2669
   75DOPC  C21610294  10.541   6.327   3.971  0.1478 -0.2862 -0.4287
   75DOPC  H16R10295  10.623   6.382   3.920  0.4933 -1.1184 -0.7900
   75DOPC  H16S10296  10.476   6.399   4.025  2.4801  0.6479  1.3131
   75DOPC  C21710297  10.469   6.246   3.866  0.0003  0.1951  0.1371
   75DOPC  H17R10298  10.380   6.200   3.912  0.4511 -0.8519 -0.0066
   75DOPC  H17S10299  10.536   6.166   3.828 -0.9004  0.2157 -1.6093
   75DOPC  C21810300  10.423   6.324   3.745  0.7684 -0.0384  0.0269
   75DOPC  H18R10301  10.396   6.426   3.780  2.6975 -0.0773  1.8475
   75DOPC  H18S10302  10.341   6.276   3.688 -1.2554  2.1762  0.9412
   75DOPC  H18T10303  10.501   6.357   3.673 -1.1167  1.4212 -1.4453
   75DOPC   C3310304  10.640   6.474   4.936  0.2403  0.2736  0.1576
   75DOPC   H3X10305  10.721   6.545   4.963  1.0575 -0.5553 -0.0297
   75DOPC   H3Y10306  10.562   6.501   5.010 -0.9726 -1.3033 -0.4855
   75DOPC   C3410307  10.568   6.506   4.798 -0.4553 -0.7037 -0.2991
   75DOPC   H4X10308  10.650   6.508   4.722  0.2314 -1.6268  0.3899
   75DOPC   H4Y10309  10.526   6.607   4.816  2.1648  0.4152  0.0263
   75DOPC   C3510310  10.453   6.409   4.757  0.7458  0.2853 -0.6221
   75DOPC   H5X10311  10.373   6.430   4.831 -1.2076 -1.4586 -2.1163
   75DOPC   H5Y10312  10.487   6.304   4.769 -0.6795 -0.0743  0.5148
   75DOPC   C3610313  10.387   6.446   4.619 -0.5862  0.1507 -0.5868
   75DOPC   H6X10314  10.379   6.557   4.617 -1.5962  0.1417  0.9014
   75DOPC   H6Y10315  10.464   6.416   4.545  0.1181 -1.1258  0.6223
   75DOPC   C3710316  10.256   6.370   4.588  0.6253  0.6609  0.4151
   75DOPC   H7X10317  10.268   6.260   4.596 -2.0951  0.1803 -1.0408
   75DOPC   H7Y10318  10.188   6.410   4.666  1.6712  0.0695  1.6649
   75DOPC   C3810319  10.201   6.398   4.443 -0.1524 -0.0059 -0.0283
   75DOPC   H8X10320  10.223   6.505   4.423 -0.5327 -0.1128 -1.0758
   75DOPC   H8Y10321  10.091   6.383   4.447  0.1788 -2.7410  0.8639
   75DOPC   C3910322  10.249   6.317   4.325  0.7650  0.6216 -0.6759
   75DOPC   H9X10323  10.335   6.251   4.345  0.9204  0.9733 -0.1609
   75DOPC  C31010324  10.182   6.305   4.210 -0.4087  0.5239  1.3934
   75DOPC  H10X10325  10.233   6.244   4.134  1.4668  2.3203  1.1395
   75DOPC  C31110326  10.064   6.385   4.158  0.2490  0.6158  0.0853
   75DOPC  H11X10327  10.032   6.454   4.240 -0.0784 -0.6960  1.1005
   75DOPC  H11Y10328   9.979   6.329   4.114  1.5599 -1.1613 -0.2962
   75DOPC  C31210329  10.118   6.470   4.041 -0.4143 -0.3669  0.7425
   75DOPC  H12X10330  10.177   6.415   3.964 -1.0051  2.8557 -2.2585
   75DOPC  H12Y10331  10.190   6.542   4.084 -1.2284  0.6822  0.3927
   75DOPC  C31310332   9.997   6.556   3.983  0.1552  0.2218  0.8550
   75DOPC  H13X10333   9.954   6.623   4.061  0.7147  0.0732  1.2959
   75DOPC  H13Y10334   9.922   6.489   3.935  0.5177 -0.0632  0.6864
   75DOPC  C31410335  10.043   6.651   3.869  0.1142 -0.3980  0.3577
   75DOPC  H14X10336  10.143   6.692   3.898 -0.6384  1.9362 -0.1644
   75DOPC  H14Y10337  10.067   6.597   3.775 -0.9984  1.6827 -1.1952
   75DOPC  C31510338   9.941   6.760   3.843 -0.6469 -0.0324 -0.0324
   75DOPC  H15X10339   9.937   6.822   3.935 -1.0333 -0.4130  0.2128
   75DOPC  H15Y10340   9.839   6.718   3.828 -0.9789  0.7380  0.0132
   75DOPC  C31610341   9.975   6.853   3.719  0.1007  0.2505  0.0348
   75DOPC  H16X10342   9.902   6.936   3.719 -1.4843 -1.0867  0.5916
   75DOPC  H16Y10343  10.071   6.909   3.728  0.0659  0.4561 -0.7846
   75DOPC  C31710344   9.957   6.790   3.578  0.2625 -0.1080 -0.7464
   75DOPC  H17X10345  10.011   6.853   3.505  0.6696 -1.0759 -1.2948
   75DOPC  H17Y10346  10.013   6.694   3.571 -1.5001 -1.1024 -2.0327
   75DOPC  C31810347   9.809   6.760   3.533 -0.4189 -1.0082  0.2826
   75DOPC  H18X10348   9.772   6.690   3.610 -1.1619 -1.2591 -0.2957
   75DOPC  H18Y10349   9.753   6.857   3.535  1.5518  0.2877 -1.6933
   75DOPC  H18Z10350   9.808   6.723   3.428  0.1089 -0.5341  0.1070
   76DOPC     N10351  12.044   7.246   5.909  0.0990 -0.3575  0.6041
   76DOPC   C1210352  12.096   7.189   5.781  0.1265  0.2489 -0.1551
   76DOPC  H12A10353  12.195   7.223   5.752  0.7218 -1.7011 -0.5717
   76DOPC  H12B10354  12.036   7.232   5.702 -0.1346 -1.3707 -0.8636
   76DOPC   C1310355  12.113   7.176   6.020  0.3955 -0.0247  0.3016
   76DOPC  H13A10356  12.083   7.219   6.114  1.5898  1.0354  0.2210
   76DOPC  H13B10357  12.096   7.069   6.015  1.3318 -0.2679  1.8751
   76DOPC  H13C10358  12.219   7.194   6.021 -0.3249  6.1289 -0.0485
   76DOPC   C1410359  11.903   7.217   5.935  0.1245  0.0950  0.0819
   76DOPC  H14A10360  11.893   7.213   6.042 -0.9153 -2.9068 -0.0045
   76DOPC  H14B10361  11.832   7.283   5.887 -1.4049 -0.8870  0.8875
   76DOPC  H14C10362  11.873   7.124   5.888  3.6369 -0.6031 -1.0695
   76DOPC   C1510363  12.077   7.398   5.923 -0.2825  0.0311 -0.1179
   76DOPC  H15A10364  12.027   7.455   5.846  2.4779  2.7761 -0.0881
   76DOPC  H15B10365  12.184   7.409   5.909  0.1694 -1.8966  1.4136
   76DOPC  H15C10366  12.062   7.433   6.024  0.5532  2.0144 -0.6223
   76DOPC   C1110367  12.081   7.039   5.756  0.0378 -0.2522  0.1637
   76DOPC  H11A10368  12.143   6.999   5.673 -0.2076  0.1146 -0.1974
   76DOPC  H11B10369  12.126   6.987   5.844  0.3380  0.0284  0.1763
   76DOPC     P10370  11.924   6.866   5.670  0.3490  0.3178  0.1754
   76DOPC   O1310371  11.781   6.825   5.680 -0.5395 -0.1136 -0.2612
   76DOPC   O1410372  12.029   6.764   5.705  0.5421  0.1858 -0.2443
   76DOPC   O1210373  11.941   7.001   5.747  0.5712 -0.1043  0.3715
   76DOPC   O1110374  11.943   6.909   5.522  0.0599  0.5119 -0.2450
   76DOPC    C110375  11.904   7.041   5.488  0.1928  0.5519 -0.3416
   76DOPC    HA10376  11.996   7.103   5.490 -0.4887  1.5913  1.5606
   76DOPC    HB10377  11.821   7.073   5.556 -0.7554 -0.6919 -0.8800
   76DOPC    C210378  11.842   7.049   5.344  0.1310 -0.3130  0.5805
   76DOPC    HS10379  11.748   6.990   5.347 -0.0478 -0.0322  0.4407
   76DOPC   O2110380  11.928   6.984   5.244 -0.0336 -0.0682  0.1606
   76DOPC   C2110381  11.862   6.919   5.151 -0.2213 -0.0961  0.2848
   76DOPC   O2210382  11.748   6.889   5.149  0.5510  0.4510  0.3380
   76DOPC   C2210383  11.971   6.871   5.053  0.3115 -0.3887  0.1647
   76DOPC   H2R10384  12.041   6.803   5.107 -1.0264 -0.9084  1.3216
   76DOPC   H2S10385  12.030   6.958   5.017  1.6314 -1.9210 -1.5741
   76DOPC    C310386  11.814   7.202   5.302  0.0702 -0.0853  0.0664
   76DOPC    HX10387  11.912   7.248   5.281 -0.0674 -0.5602 -1.7804
   76DOPC    HY10388  11.775   7.266   5.384  3.5694  0.9674  1.0407
   76DOPC   O3110389  11.730   7.215   5.179  0.1247  0.7815 -0.1537
   76DOPC   C3110390  11.604   7.251   5.193 -0.1024  0.9106 -0.1619
   76DOPC   O3210391  11.545   7.276   5.298 -0.6006  0.5486  0.3233
   76DOPC   C3210392  11.541   7.264   5.056 -0.1939  0.1697 -0.1241
   76DOPC   H2X10393  11.551   7.163   5.012 -2.6228 -0.9036  1.5799
   76DOPC   H2Y10394  11.435   7.296   5.066  0.0495  0.6773  0.9979
   76DOPC   C2310395  11.913   6.788   4.938  0.4964  0.0656  0.0053
   76DOPC   H3R10396  11.829   6.721   4.965  1.2513 -1.2110 -0.7680
   76DOPC   H3S10397  11.982   6.723   4.880  0.1931  1.1537 -1.6573
   76DOPC   C2410398  11.852   6.893   4.843 -0.2586 -0.2825  0.2838
   76DOPC   H4R10399  11.935   6.936   4.782 -0.8550  0.2720 -0.1547
   76DOPC   H4S10400  11.795   6.983   4.876 -1.5433  0.8975 -4.4122
   76DOPC   C2510401  11.746   6.832   4.745 -0.1215  0.7671 -0.0620
   76DOPC   H5R10402  11.669   6.781   4.807 -2.4387  3.8371 -0.1081
   76DOPC   H5S10403  11.784   6.761   4.669 -1.4831 -1.0956  0.9033
   76DOPC   C2610404  11.659   6.944   4.677  0.2632  0.6135  0.2713
   76DOPC   H6R10405  11.716   7.012   4.610  2.2517 -1.8047 -0.6855
   76DOPC   H6S10406  11.608   7.010   4.750 -0.2140  0.5416  0.0030
   76DOPC   C2710407  11.552   6.868   4.594 -0.0494 -0.1436  0.4304
   76DOPC   H7R10408  11.486   6.809   4.662 -0.5567 -1.7467 -1.3445
   76DOPC   H7S10409  11.610   6.794   4.534 -0.1663  0.3215 -0.2581
   76DOPC   C2810410  11.481   6.952   4.481 -0.3518  0.5561  0.0673
   76DOPC   H8R10411  11.413   6.886   4.423  1.3913 -1.2743 -0.0208
   76DOPC   H8S10412  11.549   6.991   4.402  1.0713  0.5203  1.2426
   76DOPC   C2910413  11.402   7.054   4.557 -0.3637  0.0201 -0.2768
   76DOPC   H9R10414  11.323   7.015   4.623  0.5484  1.6923  1.9734
   76DOPC  C21010415  11.420   7.191   4.547 -0.2717  0.1521  0.4599
   76DOPC  H10R10416  11.345   7.262   4.584  1.4991  3.3622 -1.6219
   76DOPC  C21110417  11.523   7.260   4.468  0.1428 -0.1842  0.7269
   76DOPC  H11R10418  11.603   7.187   4.442 -1.0034 -1.0013 -0.6484
   76DOPC  H11S10419  11.581   7.329   4.533 -0.6177  0.3116  0.8918
   76DOPC  C21210420  11.482   7.328   4.333 -0.2135  0.2802  0.3441
   76DOPC  H12R10421  11.574   7.363   4.282  0.6850 -1.5418  0.6528
   76DOPC  H12S10422  11.416   7.414   4.358 -2.7662 -0.8672 -1.9536
   76DOPC  C21310423  11.406   7.232   4.238  0.4364 -0.5184  0.3783
   76DOPC  H13R10424  11.330   7.180   4.299 -0.1366 -1.1319 -0.8312
   76DOPC  H13S10425  11.469   7.145   4.210 -0.4719 -0.9815 -0.2642
   76DOPC  C21410426  11.335   7.297   4.120 -0.3931  0.0056 -0.5605
   76DOPC  H14R10427  11.262   7.366   4.167 -1.9232 -1.4226 -0.7328
   76DOPC  H14S10428  11.271   7.223   4.067 -0.0112  0.9161 -2.3802
   76DOPC  C21510429  11.419   7.371   4.015 -0.3615  0.3141  0.5120
   76DOPC  H15R10430  11.466   7.464   4.054  0.4583  0.2906 -0.3655
   76DOPC  H15S10431  11.353   7.393   3.928  1.2673 -4.1793 -2.1922
   76DOPC  C21610432  11.536   7.294   3.960  0.6279  0.0922 -0.5913
   76DOPC  H16R10433  11.600   7.250   4.039 -1.8409 -2.3760  0.1786
   76DOPC  H16S10434  11.596   7.371   3.907 -1.7400  2.4775 -0.0561
   76DOPC  C21710435  11.484   7.199   3.852 -0.5879  0.0480 -0.2591
   76DOPC  H17R10436  11.439   7.253   3.766 -1.8964 -0.3510  0.1440
   76DOPC  H17S10437  11.405   7.136   3.898  0.2576  0.5504  2.0406
   76DOPC  C21810438  11.595   7.113   3.798 -0.2173  0.0425 -0.6859
   76DOPC  H18R10439  11.673   7.178   3.753  2.0784 -1.1084  1.3342
   76DOPC  H18S10440  11.550   7.045   3.723 -0.8446 -0.3626  0.0477
   76DOPC  H18T10441  11.625   7.044   3.880 -0.6379  0.6440 -0.0178
   76DOPC   C3310442  11.600   7.389   4.974 -0.4433 -0.2261  0.3080
   76DOPC   H3X10443  11.706   7.371   4.950 -0.3883  1.9588 -1.3674
   76DOPC   H3Y10444  11.595   7.477   5.042 -1.2186  1.6638 -2.0418
   76DOPC   C3410445  11.500   7.404   4.852  0.0651 -0.1728 -0.0926
   76DOPC   H4X10446  11.397   7.398   4.892  0.6650 -3.0605  1.2973
   76DOPC   H4Y10447  11.509   7.307   4.800 -3.3467  0.3068 -1.8416
   76DOPC   C3510448  11.523   7.523   4.758 -0.3935  0.3661 -0.4154
   76DOPC   H5X10449  11.494   7.617   4.810  1.3130  0.7282 -0.0630
   76DOPC   H5Y10450  11.472   7.516   4.660 -0.7899 -0.1814 -0.1772
   76DOPC   C3610451  11.669   7.538   4.713 -0.0602 -0.4616 -0.0252
   76DOPC   H6X10452  11.736   7.558   4.798  0.4000  0.0041 -0.4908
   76DOPC   H6Y10453  11.712   7.444   4.671 -0.4992 -0.3410 -0.7822
   76DOPC   C3710454  11.692   7.656   4.623  0.2878 -0.4407  0.1308
   76DOPC   H7X10455  11.601   7.675   4.562  1.2906 -0.9404 -1.6052
   76DOPC   H7Y10456  11.712   7.749   4.679 -1.8594  1.1245 -1.5480
   76DOPC   C3810457  11.810   7.632   4.524 -0.3718 -0.6428 -0.8290
   76DOPC   H8X10458  11.902   7.614   4.583 -0.4789  2.4391  0.4765
   76DOPC   H8Y10459  11.815   7.734   4.479 -0.1763 -0.2940 -0.0157
   76DOPC   C3910460  11.785   7.516   4.426 -0.4494 -0.1530 -0.3480
   76DOPC   H9X10461  11.762   7.414   4.460  1.4404  0.0929  1.9668
   76DOPC  C31010462  11.794   7.528   4.291 -0.7677 -0.0409  0.3021
   76DOPC  H10X10463  11.765   7.441   4.230 -0.6845  0.2476 -0.1529
   76DOPC  C31110464  11.853   7.649   4.214 -0.4925 -0.7376  0.9134
   76DOPC  H11X10465  11.914   7.716   4.278  0.4055  0.7567 -1.4015
   76DOPC  H11Y10466  11.773   7.712   4.170 -1.1136 -1.6835  0.6543
   76DOPC  C31210467  11.958   7.621   4.107  0.0931  0.2012  0.3563
   76DOPC  H12X10468  12.026   7.546   4.154 -0.3903  0.0516  0.8275
   76DOPC  H12Y10469  12.021   7.709   4.082  0.6601  0.0851  1.3278
   76DOPC  C31310470  11.904   7.556   3.983 -0.4398  0.2238  0.1092
   76DOPC  H13X10471  11.843   7.469   4.018  1.3223 -0.4093  1.7563
   76DOPC  H13Y10472  11.834   7.628   3.934 -0.2145  1.3311  1.3560
   76DOPC  C31410473  12.018   7.509   3.892 -0.7651  0.2099 -0.2578
   76DOPC  H14X10474  12.077   7.602   3.874 -0.6057 -0.0991 -1.4287
   76DOPC  H14Y10475  12.085   7.438   3.945  1.1486  1.4508 -0.9190
   76DOPC  C31510476  11.978   7.459   3.749  0.8715  0.6569 -0.0845
   76DOPC  H15X10477  11.925   7.544   3.702 -0.0322  0.1877  0.0608
   76DOPC  H15Y10478  11.905   7.376   3.766  1.0871  0.2924 -0.8676
   76DOPC  C31610479  12.087   7.398   3.660  0.3244 -0.1809 -0.2040
   76DOPC  H16X10480  12.183   7.454   3.664  0.7363 -0.7101 -1.8745
   76DOPC  H16Y10481  12.110   7.302   3.713 -1.5674  0.3730  1.7815
   76DOPC  C31710482  12.045   7.363   3.520  0.0056  0.6958  0.6641
   76DOPC  H17X10483  11.970   7.281   3.508 -1.2536  2.1743 -3.1026
   76DOPC  H17Y10484  12.005   7.451   3.466  0.2776 -0.6494 -1.9055
   76DOPC  C31810485  12.175   7.331   3.446  0.6875  0.1854  0.3092
   76DOPC  H18X10486  12.156   7.292   3.344 -1.3341  2.4651 -0.2747
   76DOPC  H18Y10487  12.242   7.417   3.425 -0.6951  0.8878 -1.4045
   76DOPC  H18Z10488  12.230   7.251   3.501 -0.9132 -2.6783 -1.9610
   77DOPC     N10489   4.526   2.461   6.146 -0.3937  0.0900  0.0281
   77DOPC   C1210490   4.501   2.406   6.006 -0.2771 -0.5167  0.9467
   77DOPC  H12A10491   4.468   2.485   5.941 -2.4767 -3.5407 -1.9350
   77DOPC  H12B10492   4.421   2.333   6.009 -1.5499  0.8244  0.4738
   77DOPC   C1310493   4.432   2.571   6.170 -0.1244  0.3122  0.8881
   77DOPC  H13A10494   4.328   2.552   6.150 -0.2455  0.1128  1.6523
   77DOPC  H13B10495   4.420   2.584   6.277 -2.7911  1.9918  0.4546
   77DOPC  H13C10496   4.452   2.664   6.120  0.5679 -0.1792  0.2109
   77DOPC   C1410497   4.663   2.510   6.164  0.8897 -0.3790 -0.3569
   77DOPC  H14A10498   4.690   2.605   6.120 -0.5085  1.1431  1.8526
   77DOPC  H14B10499   4.681   2.503   6.270  2.2530 -2.3308 -0.6563
   77DOPC  H14C10500   4.739   2.439   6.133  2.2440 -0.0336  1.9394
   77DOPC   C1510501   4.509   2.351   6.251 -0.6566  0.4664  0.4812
   77DOPC  H15A10502   4.525   2.378   6.354  2.1694 -1.4543  0.6805
   77DOPC  H15B10503   4.578   2.270   6.232 -2.2258 -1.1673  1.4478
   77DOPC  H15C10504   4.409   2.311   6.243  0.5077 -3.0162  1.2945
   77DOPC   C1110505   4.618   2.350   5.927 -0.4938  0.0212 -0.1758
   77DOPC  H11A10506   4.585   2.324   5.824  3.2059  1.7990 -2.0246
   77DOPC  H11B10507   4.684   2.436   5.900 -0.2037  0.3669  1.5514
   77DOPC     P10508   4.628   2.097   5.993 -0.0405  0.0847 -0.3972
   77DOPC   O1310509   4.506   2.087   5.909  0.1936  0.5233 -0.1496
   77DOPC   O1410510   4.620   2.071   6.139 -0.1767  0.1946  0.1887
   77DOPC   O1210511   4.692   2.244   5.986 -0.4856  0.6572 -0.1128
   77DOPC   O1110512   4.748   2.013   5.936 -0.6419  0.3388  0.2568
   77DOPC    C110513   4.791   2.044   5.806  0.5059  0.3201 -0.0669
   77DOPC    HA10514   4.891   2.000   5.785  0.5333 -1.6512  3.4060
   77DOPC    HB10515   4.805   2.153   5.791 -1.6101  0.6021 -0.2651
   77DOPC    C210516   4.694   1.990   5.694  0.0805 -0.3200  0.1829
   77DOPC    HS10517   4.589   2.025   5.701  0.1312 -0.3838  1.4029
   77DOPC   O2110518   4.698   1.849   5.697  0.6012  0.3837  0.2047
   77DOPC   C2110519   4.591   1.782   5.660  0.6301  0.1050  0.7575
   77DOPC   O2210520   4.486   1.827   5.622  0.0320 -0.1749 -0.1253
   77DOPC   C2210521   4.631   1.632   5.658 -0.3104 -0.2930  0.2902
   77DOPC   H2R10522   4.550   1.573   5.705 -1.8588 -0.6777 -2.6185
   77DOPC   H2S10523   4.723   1.624   5.720  0.0734  1.7330  0.0648
   77DOPC    C310524   4.737   2.050   5.555 -0.7064 -0.2804  0.3249
   77DOPC    HX10525   4.842   2.016   5.543 -1.6182 -3.1250 -0.4824
   77DOPC    HY10526   4.733   2.161   5.563  3.5445  0.3625 -2.7947
   77DOPC   O3110527   4.658   1.994   5.445  0.0269 -0.4342  0.4443
   77DOPC   C3110528   4.573   2.086   5.388  0.1380 -0.6836  0.5024
   77DOPC   O3210529   4.564   2.203   5.419 -0.4772 -0.0626 -0.0726
   77DOPC   C3210530   4.497   2.005   5.277  0.4016  0.9166  0.4269
   77DOPC   H2X10531   4.571   1.974   5.200 -1.6163 -3.6190 -0.0147
   77DOPC   H2Y10532   4.455   1.917   5.332 -1.1331  1.7345  0.6171
   77DOPC   C2310533   4.683   1.574   5.518  0.0618  0.0265  0.5678
   77DOPC   H3R10534   4.599   1.578   5.446  0.2228 -0.6638  0.3340
   77DOPC   H3S10535   4.717   1.469   5.531 -0.8674 -0.5072 -1.0422
   77DOPC   C2410536   4.800   1.650   5.446 -0.2208  0.6464 -0.3366
   77DOPC   H4R10537   4.886   1.664   5.516  0.3089 -2.2799 -0.2845
   77DOPC   H4S10538   4.773   1.749   5.405  1.5260  0.9414 -0.8542
   77DOPC   C2510539   4.884   1.565   5.349 -0.0071  0.3303  0.0430
   77DOPC   H5R10540   4.912   1.470   5.399 -2.4455 -0.0194  0.8916
   77DOPC   H5S10541   4.962   1.633   5.308 -0.6426  1.3498  0.4816
   77DOPC   C2610542   4.811   1.511   5.220 -0.3539 -0.1093 -0.5141
   77DOPC   H6R10543   4.718   1.467   5.261 -0.1775  1.3249  1.6005
   77DOPC   H6S10544   4.873   1.428   5.180  1.7228  0.2734  1.7422
   77DOPC   C2710545   4.789   1.625   5.128 -0.5243  0.1530  0.9312
   77DOPC   H7R10546   4.777   1.722   5.180 -1.2143  1.2766 -1.2257
   77DOPC   H7S10547   4.694   1.614   5.071 -1.0371 -0.2076  1.8344
   77DOPC   C2810548   4.905   1.651   5.027  0.3415 -0.0354  0.8452
   77DOPC   H8R10549   5.004   1.649   5.078  0.1383  0.2020  1.2549
   77DOPC   H8S10550   4.896   1.752   4.982 -0.3905 -0.1587  0.6941
   77DOPC   C2910551   4.930   1.548   4.911  0.3268 -0.3053  0.1294
   77DOPC   H9R10552   4.868   1.458   4.927 -0.5301  0.0213 -1.1939
   77DOPC  C21010553   5.021   1.547   4.809 -0.2705  0.0523 -0.6355
   77DOPC  H10R10554   5.030   1.460   4.741  0.1020  2.6897 -4.2492
   77DOPC  C21110555   5.123   1.664   4.781  0.7243  0.5013  0.2758
   77DOPC  H11R10556   5.212   1.637   4.842  0.2024 -2.5874 -0.1502
   77DOPC  H11S10557   5.076   1.763   4.796 -0.5879  0.1866 -1.4323
   77DOPC  C21210558   5.168   1.674   4.637  0.3324  0.8054  0.1148
   77DOPC  H12R10559   5.075   1.689   4.579 -0.1686  0.3440  0.7870
   77DOPC  H12S10560   5.223   1.588   4.591 -0.7217  1.2394 -2.1306
   77DOPC  C21310561   5.267   1.789   4.614 -0.5057  0.2273 -0.4728
   77DOPC  H13R10562   5.360   1.765   4.671 -0.0434  0.7934 -0.9770
   77DOPC  H13S10563   5.232   1.884   4.661  1.5511  1.8930 -2.1438
   77DOPC  C21410564   5.319   1.809   4.474  0.5579 -0.1196  1.2662
   77DOPC  H14R10565   5.395   1.891   4.467  1.0001 -0.6838 -3.0290
   77DOPC  H14S10566   5.239   1.840   4.403  0.8234 -0.4006  0.8368
   77DOPC  C21510567   5.394   1.688   4.412 -0.1077  0.1046 -0.3157
   77DOPC  H15R10568   5.338   1.593   4.418 -1.2153  0.7367 -0.3370
   77DOPC  H15S10569   5.486   1.674   4.473  1.1290  2.0882 -1.5952
   77DOPC  C21610570   5.422   1.721   4.266 -0.2081  0.0121  0.4811
   77DOPC  H16R10571   5.452   1.827   4.270 -0.7309  0.1748  0.1500
   77DOPC  H16S10572   5.323   1.719   4.216 -0.4097  0.5100  0.8499
   77DOPC  C21710573   5.513   1.632   4.182 -0.0724  0.5211 -0.1639
   77DOPC  H17R10574   5.522   1.682   4.084  0.2326  2.0909  0.6389
   77DOPC  H17S10575   5.473   1.528   4.183  1.9785 -0.3280 -0.3755
   77DOPC  C21810576   5.652   1.616   4.238 -0.5440  0.4476 -1.1039
   77DOPC  H18R10577   5.651   1.548   4.326  0.4036  2.3615  0.4746
   77DOPC  H18S10578   5.692   1.711   4.281 -3.1848  1.0265  0.3300
   77DOPC  H18T10579   5.730   1.569   4.175 -0.6484  1.8201 -2.3061
   77DOPC   C3310580   4.394   2.088   5.191 -0.2034 -0.6696 -0.7297
   77DOPC   H3X10581   4.354   2.178   5.244 -0.5675 -0.1163 -1.9042
   77DOPC   H3Y10582   4.312   2.015   5.171 -1.0621 -0.1049  0.5659
   77DOPC   C3410583   4.446   2.145   5.061 -0.1139  0.8874 -0.2711
   77DOPC   H4X10584   4.473   2.064   4.989  0.6162  2.2572 -1.6026
   77DOPC   H4Y10585   4.533   2.210   5.083  1.4692 -1.7783  1.9409
   77DOPC   C3510586   4.335   2.230   4.998  0.0178  0.3975  0.3931
   77DOPC   H5X10587   4.335   2.320   5.063  0.2403 -1.2976  2.8570
   77DOPC   H5Y10588   4.245   2.167   5.013 -1.2329  2.4862  2.2726
   77DOPC   C3610589   4.357   2.264   4.848  0.2021  0.3465  0.4421
   77DOPC   H6X10590   4.446   2.331   4.852  0.6641 -0.2395  0.0773
   77DOPC   H6Y10591   4.406   2.184   4.789  1.1966  1.1958  0.0948
   77DOPC   C3710592   4.234   2.335   4.776  0.6045  0.0302  0.3535
   77DOPC   H7X10593   4.146   2.268   4.790 -0.3404  1.2977  0.7114
   77DOPC   H7Y10594   4.201   2.425   4.833 -2.4409 -0.3913 -0.5593
   77DOPC   C3810595   4.256   2.358   4.622  0.1166  0.3193 -0.2918
   77DOPC   H8X10596   4.257   2.260   4.569  2.4061  1.0890 -1.7961
   77DOPC   H8Y10597   4.350   2.412   4.601 -0.4136  0.7725 -1.6286
   77DOPC   C3910598   4.138   2.433   4.565  0.7035 -0.1153  0.6332
   77DOPC   H9X10599   4.071   2.475   4.641 -2.5026  2.0927 -3.0588
   77DOPC  C31010600   4.112   2.467   4.433 -0.1292  0.0138 -0.1075
   77DOPC  H10X10601   4.021   2.524   4.410 -1.3676 -1.7274  0.3350
   77DOPC  C31110602   4.191   2.416   4.317 -0.9990 -0.6449  1.0942
   77DOPC  H11X10603   4.282   2.368   4.358 -0.4993 -0.7061 -0.0453
   77DOPC  H11Y10604   4.223   2.500   4.251 -0.1626 -2.1887 -0.5609
   77DOPC  C31210605   4.123   2.306   4.242 -0.6106 -0.1731  0.5457
   77DOPC  H12X10606   4.034   2.354   4.194 -1.7022  0.3132  2.9325
   77DOPC  H12Y10607   4.085   2.229   4.312  2.2921 -1.1169  1.2158
   77DOPC  C31310608   4.209   2.243   4.133 -0.1361  0.4029  0.4734
   77DOPC  H13X10609   4.291   2.197   4.192 -0.7281  1.3931  2.1077
   77DOPC  H13Y10610   4.164   2.156   4.079 -3.0294  2.6875 -1.1116
   77DOPC  C31410611   4.269   2.341   4.025  0.0957  0.0552 -0.7551
   77DOPC  H14X10612   4.323   2.416   4.086 -0.7316  0.7282 -0.8285
   77DOPC  H14Y10613   4.350   2.291   3.967  0.7004 -0.0045  0.1272
   77DOPC  C31510614   4.163   2.415   3.936 -0.0914  0.7442 -0.7924
   77DOPC  H15X10615   4.213   2.496   3.878  0.2690  0.1650 -1.3030
   77DOPC  H15Y10616   4.077   2.449   3.998  2.1117  0.5680  2.6023
   77DOPC  C31610617   4.096   2.335   3.826 -0.7420  0.7827  0.1244
   77DOPC  H16X10618   4.174   2.280   3.769 -0.2607  2.2673 -0.6851
   77DOPC  H16Y10619   4.032   2.263   3.882  1.0940 -0.5069  0.6826
   77DOPC  C31710620   4.004   2.422   3.740 -0.5673  0.4909  0.2804
   77DOPC  H17X10621   4.055   2.451   3.646 -1.9054 -1.4274 -1.1126
   77DOPC  H17Y10622   3.931   2.350   3.698 -1.7432  2.1152 -0.5756
   77DOPC  C31810623   3.933   2.535   3.805  0.7344 -0.8428 -0.7878
   77DOPC  H18X10624   3.995   2.616   3.850 -2.4377  1.3785 -0.0168
   77DOPC  H18Y10625   3.877   2.583   3.722  1.1136  0.1556 -0.4898
   77DOPC  H18Z10626   3.860   2.497   3.880  1.3630  1.1906  0.9561
   78DOPC     N10627   7.956  11.288   6.315  1.1064 -0.3706  0.2607
   78DOPC   C1210628   7.947  11.156   6.233  0.7174 -0.4208  0.5494
   78DOPC  H12A10629   7.887  11.089   6.291 -0.9903  1.9811  1.7223
   78DOPC  H12B10630   8.046  11.112   6.234  0.4031 -1.2997 -1.4976
   78DOPC   C1310631   7.982  11.237   6.449  0.0098  0.1522 -0.2589
   78DOPC  H13A10632   7.894  11.189   6.490  0.4942  1.0326  1.9343
   78DOPC  H13B10633   8.069  11.173   6.455 -0.1363 -0.0240  0.0079
   78DOPC  H13C10634   8.005  11.315   6.520 -0.1262 -1.1052  1.2255
   78DOPC   C1410635   7.823  11.355   6.309 -0.3809  0.4664  0.0507
   78DOPC  H14A10636   7.749  11.308   6.371 -0.8983  0.9323 -0.2061
   78DOPC  H14B10637   7.831  11.462   6.322  0.4969  0.4016  0.1232
   78DOPC  H14C10638   7.787  11.339   6.208  0.4996  1.2276 -0.4131
   78DOPC   C1510639   8.065  11.379   6.265 -0.1137 -0.0731 -0.2871
   78DOPC  H15A10640   8.051  11.414   6.164 -3.0161 -0.1031  0.0310
   78DOPC  H15B10641   8.155  11.319   6.266  0.2324  0.4443  0.5427
   78DOPC  H15C10642   8.072  11.464   6.331  2.7423 -0.5420  0.1469
   78DOPC   C1110643   7.895  11.171   6.083 -0.5703 -0.2211 -0.6794
   78DOPC  H11A10644   7.964  11.243   6.035 -1.0346  0.4143 -0.4016
   78DOPC  H11B10645   7.937  11.086   6.025 -0.4818  0.2871 -1.3738
   78DOPC     P10646   7.639  11.110   6.147 -0.3873 -0.0520  0.1105
   78DOPC   O1310647   7.557  11.198   6.230  0.3676  0.0690  0.2449
   78DOPC   O1410648   7.702  10.995   6.211  0.1269  0.7345 -0.2899
   78DOPC   O1210649   7.754  11.194   6.088  0.5216  0.9765  0.4257
   78DOPC   O1110650   7.553  11.068   6.028  0.1418 -0.2386 -0.7018
   78DOPC    C110651   7.544  11.152   5.907  0.0776  0.0858  0.0237
   78DOPC    HA10652   7.597  11.094   5.828  0.5772  0.5619  0.0035
   78DOPC    HB10653   7.589  11.251   5.930 -1.1308  0.6705 -0.0166
   78DOPC    C210654   7.400  11.182   5.861 -0.2889 -0.1465 -0.4280
   78DOPC    HS10655   7.341  11.229   5.942  2.6960  2.8381  0.2866
   78DOPC   O2110656   7.344  11.056   5.805  0.6591 -0.3851  0.2431
   78DOPC   C2110657   7.212  11.057   5.791  0.2980  0.2104 -0.2962
   78DOPC   O2210658   7.135  11.139   5.843 -0.9286 -0.6193 -0.5133
   78DOPC   C2210659   7.170  10.936   5.702 -0.2102 -0.2633 -0.3261
   78DOPC   H2R10660   7.120  10.858   5.762 -0.7395 -0.0209 -0.4499
   78DOPC   H2S10661   7.262  10.888   5.662 -0.2570 -0.1872 -0.5266
   78DOPC    C310662   7.402  11.302   5.752  0.2664  0.0405 -0.8981
   78DOPC    HX10663   7.473  11.285   5.669  1.7294  0.1788  0.2768
   78DOPC    HY10664   7.438  11.398   5.796 -0.3541  0.5502 -1.4695
   78DOPC   O3110665   7.270  11.316   5.693  0.5413  0.3154  0.6659
   78DOPC   C3110666   7.197  11.419   5.727  0.9965  0.6973 -0.1574
   78DOPC   O3210667   7.230  11.512   5.801  0.4900  0.2544 -0.2242
   78DOPC   C3210668   7.072  11.403   5.638  0.4168 -0.3157  0.0301
   78DOPC   H2X10669   7.102  11.351   5.544  1.0989 -0.3810  0.2758
   78DOPC   H2Y10670   6.999  11.336   5.689 -1.7499  1.8115 -0.1089
   78DOPC   C2310671   7.085  10.981   5.579 -0.1634  0.4307  0.0587
   78DOPC   H3R10672   7.099  10.902   5.502 -1.3579  0.2330  0.0197
   78DOPC   H3S10673   7.123  11.079   5.543 -2.4915  1.6905  0.8003
   78DOPC   C2410674   6.940  10.990   5.621 -0.0382  0.1672 -0.2383
   78DOPC   H4R10675   6.927  11.059   5.708 -0.3214 -2.3438  1.8117
   78DOPC   H4S10676   6.911  10.894   5.669 -1.2776  1.1059  1.0101
   78DOPC   C2510677   6.849  11.036   5.513  0.1279 -0.1748  0.0169
   78DOPC   H5R10678   6.854  11.144   5.492 -0.7021 -0.1668 -0.1853
   78DOPC   H5S10679   6.744  11.018   5.545  0.3510  0.9021  1.4285
   78DOPC   C2610680   6.869  10.957   5.382  0.4368 -0.4014  0.1243
   78DOPC   H6R10681   6.875  10.848   5.401 -1.0621 -0.5499 -0.1363
   78DOPC   H6S10682   6.966  10.999   5.346  0.9507 -1.4518  0.2272
   78DOPC   C2710683   6.754  10.985   5.287  0.4330  0.2220 -0.7323
   78DOPC   H7R10684   6.746  11.092   5.257  1.0967  0.2422 -0.8682
   78DOPC   H7S10685   6.660  10.952   5.334 -0.6237  0.9728 -2.2155
   78DOPC   C2810686   6.760  10.902   5.157  0.5053  0.1577  0.6392
   78DOPC   H8R10687   6.660  10.909   5.109 -0.0740 -1.0418  1.6186
   78DOPC   H8S10688   6.772  10.794   5.182  2.4614 -0.2571 -1.7327
   78DOPC   C2910689   6.870  10.947   5.069 -0.0458  0.4098  0.5183
   78DOPC   H9R10690   6.971  10.951   5.114  1.9776 -0.2663 -3.4703
   78DOPC  C21010691   6.868  10.982   4.938  0.3680  0.2353 -0.7153
   78DOPC  H10R10692   6.961  11.014   4.889 -0.2984  2.6176 -0.5397
   78DOPC  C21110693   6.747  10.982   4.860  0.8324  0.1141 -0.0910
   78DOPC  H11R10694   6.675  11.055   4.901 -0.7404 -0.1460 -2.1973
   78DOPC  H11S10695   6.690  10.886   4.855  0.8059 -0.0042  1.7887
   78DOPC  C21210696   6.775  11.013   4.707  0.7916 -0.0828 -0.7190
   78DOPC  H12R10697   6.820  10.923   4.661 -0.0673 -0.3358 -1.0903
   78DOPC  H12S10698   6.844  11.101   4.704  1.7591 -0.8355 -0.9272
   78DOPC  C21310699   6.648  11.051   4.626 -0.5953  0.7189 -0.5317
   78DOPC  H13R10700   6.691  11.093   4.532  1.0984 -0.2686 -0.2443
   78DOPC  H13S10701   6.583  11.124   4.679 -2.6191 -1.4139  0.0816
   78DOPC  C21410702   6.578  10.925   4.585 -0.6181  0.4823  0.2200
   78DOPC  H14R10703   6.500  10.881   4.651 -1.8158 -0.2912 -1.6012
   78DOPC  H14S10704   6.653  10.844   4.575 -1.0722  0.2234 -1.4129
   78DOPC  C21510705   6.497  10.939   4.456 -0.3598 -0.2059 -0.0531
   78DOPC  H15R10706   6.548  10.999   4.377  2.4942 -2.1563  0.1620
   78DOPC  H15S10707   6.398  10.982   4.482 -1.5917 -2.1095 -1.3683
   78DOPC  C21610708   6.473  10.805   4.389 -0.1014  0.8325 -0.4068
   78DOPC  H16R10709   6.570  10.761   4.360  0.6755  2.1344  0.1320
   78DOPC  H16S10710   6.424  10.822   4.290 -1.2918 -1.5953 -0.3003
   78DOPC  C21710711   6.392  10.699   4.470  0.3981 -0.1445  0.5795
   78DOPC  H17R10712   6.454  10.658   4.553  0.1450 -0.0357  0.8262
   78DOPC  H17S10713   6.368  10.609   4.411 -0.6004 -0.2830  1.1799
   78DOPC  C21810714   6.255  10.751   4.522  0.2246  0.0324 -0.0613
   78DOPC  H18R10715   6.264  10.844   4.582 -0.6264  1.0571 -1.4552
   78DOPC  H18S10716   6.202  10.674   4.582 -0.3780  0.1662 -0.4229
   78DOPC  H18T10717   6.189  10.777   4.437 -2.1184 -0.6630  1.4624
   78DOPC   C3310718   7.000  11.531   5.595  0.8450 -0.6015  0.1396
   78DOPC   H3X10719   6.950  11.577   5.683  0.5109  0.8595 -0.7770
   78DOPC   H3Y10720   6.915  11.494   5.533  0.7737  0.0674 -0.1683
   78DOPC   C3410721   7.079  11.640   5.530  0.1405 -0.3935  0.5433
   78DOPC   H4X10722   7.093  11.616   5.422  1.6523 -1.2400  0.8914
   78DOPC   H4Y10723   7.184  11.639   5.566  1.4267  0.2617 -2.7797
   78DOPC   C3510724   7.014  11.776   5.531  0.3397  0.2273 -0.0274
   78DOPC   H5X10725   6.990  11.811   5.634 -0.3570 -0.0384 -0.0923
   78DOPC   H5Y10726   6.910  11.769   5.492 -0.7533  2.3767  2.2147
   78DOPC   C3610727   7.095  11.885   5.461  0.4620 -0.6388 -0.1506
   78DOPC   H6X10728   7.203  11.864   5.476  0.1747 -1.7433  0.4932
   78DOPC   H6Y10729   7.071  11.881   5.353  1.4544  2.3876 -0.5882
   78DOPC   C3710730   7.051  12.026   5.511 -0.3532  0.3543  0.5593
   78DOPC   H7X10731   6.941  12.025   5.525 -0.4264 -0.7244  0.0213
   78DOPC   H7Y10732   7.109  12.062   5.599 -1.5984  0.5082  1.3462
   78DOPC   C3810733   7.086  12.131   5.403  0.2131 -0.5113  0.2152
   78DOPC   H8X10734   7.051  12.089   5.306 -2.2722 -1.4449  1.4427
   78DOPC   H8Y10735   7.197  12.133   5.390  0.1458 -2.6780 -1.1276
   78DOPC   C3910736   7.038  12.267   5.434 -0.0441 -0.8609  0.3742
   78DOPC   H9X10737   7.055  12.296   5.539  2.6525  1.6874 -0.6097
   78DOPC  C31010738   6.978  12.356   5.353 -0.2380 -0.0933  0.0046
   78DOPC  H10X10739   6.958  12.457   5.391  2.1342  0.5701 -0.3407
   78DOPC  C31110740   6.943  12.326   5.214  0.2253 -0.2495  0.4980
   78DOPC  H11X10741   6.835  12.304   5.200 -0.1231  2.0465 -0.9750
   78DOPC  H11Y10742   7.000  12.242   5.171 -1.1767 -1.4233  0.8531
   78DOPC  C31210743   6.963  12.454   5.124  0.2211  0.3926 -1.1832
   78DOPC  H12X10744   6.917  12.545   5.169  0.5538 -1.0319  2.3670
   78DOPC  H12Y10745   6.927  12.433   5.021 -0.2863  0.4846 -1.0319
   78DOPC  C31310746   7.113  12.489   5.106 -0.4855 -0.5501 -0.1713
   78DOPC  H13X10747   7.115  12.566   5.025 -0.3053  1.1432  1.3763
   78DOPC  H13Y10748   7.157  12.532   5.198 -0.2479 -3.8401  1.3645
   78DOPC  C31410749   7.200  12.373   5.054 -0.4442 -0.3490  0.7724
   78DOPC  H14X10750   7.210  12.306   5.142 -2.2974 -1.3841  0.2373
   78DOPC  H14Y10751   7.148  12.316   4.974 -2.8373  0.1416  1.9000
   78DOPC  C31510752   7.328  12.429   4.994 -0.8312  0.6882  0.6425
   78DOPC  H15X10753   7.306  12.523   4.939  0.3045 -0.3627 -1.7599
   78DOPC  H15Y10754   7.373  12.350   4.930 -0.1189  2.7703 -1.5910
   78DOPC  C31610755   7.432  12.447   5.103  0.2946 -0.1619  0.6603
   78DOPC  H16X10756   7.419  12.546   5.151 -1.4157  1.1100 -2.1787
   78DOPC  H16Y10757   7.410  12.372   5.182  1.2962 -0.4777  0.6454
   78DOPC  C31710758   7.580  12.438   5.062 -0.1916  0.2074 -0.1134
   78DOPC  H17X10759   7.590  12.339   5.013  0.2868 -1.0045  2.3041
   78DOPC  H17Y10760   7.589  12.519   4.986 -0.6032  0.3816  0.0246
   78DOPC  C31810761   7.681  12.448   5.177  0.1345 -0.1608 -0.0660
   78DOPC  H18X10762   7.788  12.438   5.148  0.2653 -1.3940  0.7897
   78DOPC  H18Y10763   7.668  12.551   5.218  1.1032 -0.4578  1.0346
   78DOPC  H18Z10764   7.656  12.386   5.265  0.7232 -0.4140 -0.0700
   79DOPC     N10765   0.974   5.021   5.505  0.4124 -0.3858 -0.2641
   79DOPC   C1210766   0.960   4.938   5.633  0.5177 -0.0471  0.7205
   79DOPC  H12A10767   1.013   4.995   5.708 -1.1062  2.3443  0.1570
   79DOPC  H12B10768   1.012   4.845   5.619 -1.2133 -1.1280  1.2034
   79DOPC   C1310769   0.929   4.951   5.381  0.7142 -0.3708 -0.0622
   79DOPC  H13A10770   1.004   4.878   5.355  2.2589 -0.2672  3.5526
   79DOPC  H13B10771   0.836   4.910   5.416 -0.4012  0.5021 -1.8441
   79DOPC  H13C10772   0.904   5.011   5.294 -1.7854 -1.2362 -0.0035
   79DOPC   C1410773   1.118   5.058   5.488 -0.3540 -0.0496  0.6722
   79DOPC  H14A10774   1.156   5.113   5.573 -0.4523 -0.0409  0.7110
   79DOPC  H14B10775   1.176   4.968   5.477  1.7196  1.2918  0.0308
   79DOPC  H14C10776   1.138   5.119   5.401 -0.6963  1.2706  1.4816
   79DOPC   C1510777   0.910   5.154   5.514 -0.5241 -0.4448 -0.0773
   79DOPC  H15A10778   0.807   5.148   5.547 -0.1516 -2.9112  0.8674
   79DOPC  H15B10779   0.922   5.210   5.422 -1.2251  0.4289  0.3426
   79DOPC  H15C10780   0.953   5.212   5.595 -1.1320 -0.3755  0.2034
   79DOPC   C1110781   0.817   4.910   5.678  0.1009  0.1162 -0.6036
   79DOPC  H11A10782   0.816   4.883   5.786 -2.2015  1.2555 -0.2974
   79DOPC  H11B10783   0.756   5.002   5.674 -0.4640 -0.3063 -1.9509
   79DOPC     P10784   0.809   4.657   5.646 -0.3211 -0.0688 -0.5378
   79DOPC   O1310785   0.777   4.619   5.784  0.3070  0.2173 -0.1740
   79DOPC   O1410786   0.953   4.640   5.610  0.7244 -0.5263  0.1926
   79DOPC   O1210787   0.754   4.800   5.599  0.0091 -0.7267  0.0113
   79DOPC   O1110788   0.738   4.556   5.543  1.0197  0.0726  0.1487
   79DOPC    C110789   0.773   4.563   5.408 -0.8711 -0.0899  0.5717
   79DOPC    HA10790   0.848   4.482   5.392 -0.8286 -0.1827  1.2244
   79DOPC    HB10791   0.814   4.659   5.371 -0.8539 -0.3911 -0.2130
   79DOPC    C210792   0.654   4.537   5.317  0.4934 -0.0880 -1.0282
   79DOPC    HS10793   0.686   4.524   5.212 -0.8482  1.0913 -1.6125
   79DOPC   O2110794   0.547   4.642   5.324 -0.1842  0.8121 -0.2616
   79DOPC   C2110795   0.583   4.758   5.272 -0.1634  0.2616  0.2167
   79DOPC   O2210796   0.683   4.775   5.212  0.6814 -0.1343  0.1127
   79DOPC   C2210797   0.481   4.860   5.309  0.8030 -0.0917  0.6453
   79DOPC   H2R10798   0.500   4.891   5.413 -0.4362  0.8798  0.6061
   79DOPC   H2S10799   0.379   4.815   5.314  0.2582  0.7948 -1.3095
   79DOPC    C310800   0.595   4.400   5.354  0.1842 -0.8244 -0.4217
   79DOPC    HX10801   0.546   4.395   5.453  1.7413 -2.0392  0.3291
   79DOPC    HY10802   0.681   4.331   5.358  0.4321 -0.4468  2.0107
   79DOPC   O3110803   0.504   4.368   5.243  0.1088 -0.2922  0.5986
   79DOPC   C3110804   0.372   4.384   5.263  0.1932 -0.5299  0.9168
   79DOPC   O3210805   0.324   4.429   5.365  0.0087  0.6039  0.5816
   79DOPC   C3210806   0.299   4.361   5.133  0.4097 -0.7884 -0.4275
   79DOPC   H2X10807   0.372   4.353   5.049  0.3358 -0.7937 -0.4906
   79DOPC   H2Y10808   0.238   4.269   5.131  2.1409 -1.9892 -0.8110
   79DOPC   C2310809   0.502   4.982   5.220  0.7049  0.1068 -0.1019
   79DOPC   H3R10810   0.611   5.000   5.232  0.4459  0.5160  2.0474
   79DOPC   H3S10811   0.452   5.073   5.258  0.4934  0.0820 -0.3175
   79DOPC   C2410812   0.463   4.957   5.079 -0.5643  0.7910  0.8423
   79DOPC   H4R10813   0.354   4.967   5.058 -0.5415 -0.5817 -0.0600
   79DOPC   H4S10814   0.488   4.853   5.050  0.1565  0.7284  1.6438
   79DOPC   C2510815   0.534   5.056   4.978 -0.5656 -0.3085 -0.8513
   79DOPC   H5R10816   0.644   5.056   4.990 -0.2357  1.7974 -3.0685
   79DOPC   H5S10817   0.506   5.161   5.002 -0.1248 -0.7070  1.7132
   79DOPC   C2610818   0.494   5.031   4.831 -0.6482 -0.2062 -0.0082
   79DOPC   H6R10819   0.384   5.020   4.841 -0.7865  1.1711  0.2173
   79DOPC   H6S10820   0.534   4.937   4.788 -0.6891  0.5442 -1.7701
   79DOPC   C2710821   0.537   5.141   4.737  0.7653 -0.4762 -0.7119
   79DOPC   H7R10822   0.648   5.143   4.750  1.0228  1.1928 -2.6023
   79DOPC   H7S10823   0.504   5.242   4.768  3.3541  0.6392 -1.3261
   79DOPC   C2810824   0.504   5.104   4.590 -0.2053 -0.0780  0.2176
   79DOPC   H8R10825   0.394   5.116   4.586 -0.2273  0.4772  1.7879
   79DOPC   H8S10826   0.526   4.999   4.560  0.4025 -0.0160  0.4201
   79DOPC   C2910827   0.576   5.195   4.494  0.5358  0.3445  0.2414
   79DOPC   H9R10828   0.685   5.202   4.510  0.6824  0.0398 -0.5831
   79DOPC  C21010829   0.516   5.278   4.401  0.4625  0.2142 -0.3722
   79DOPC  H10R10830   0.583   5.330   4.332  0.3330 -1.2577 -1.6640
   79DOPC  C21110831   0.369   5.302   4.390 -0.8771  0.5730  0.4749
   79DOPC  H11R10832   0.321   5.291   4.489  0.0666 -1.2027  0.7809
   79DOPC  H11S10833   0.327   5.235   4.311  3.4105  0.4312 -2.0077
   79DOPC  C21210834   0.349   5.439   4.331  0.2037  0.2414 -0.3761
   79DOPC  H12R10835   0.248   5.445   4.285  1.8547  3.3155 -4.2130
   79DOPC  H12S10836   0.421   5.456   4.248 -0.4228 -1.8568 -1.4149
   79DOPC  C21310837   0.358   5.545   4.442 -0.1216 -0.2661 -0.1600
   79DOPC  H13R10838   0.460   5.542   4.486 -0.2067  1.3618  0.2177
   79DOPC  H13S10839   0.286   5.518   4.522  0.9978  0.4265  1.1091
   79DOPC  C21410840   0.334   5.685   4.385  0.0082  0.1714 -0.4755
   79DOPC  H14R10841   0.359   5.762   4.461 -1.5116  0.6635 -0.4452
   79DOPC  H14S10842   0.223   5.688   4.375  0.1377  2.2331 -1.9316
   79DOPC  C21510843   0.426   5.725   4.275  0.0209  0.2062 -0.2756
   79DOPC  H15R10844   0.412   5.657   4.188 -1.5635 -0.8881  0.7627
   79DOPC  H15S10845   0.527   5.704   4.316 -0.0186  1.7629  0.6705
   79DOPC  C21610846   0.431   5.873   4.246 -0.1714 -0.5894 -0.0380
   79DOPC  H16R10847   0.449   5.929   4.340  3.3515 -1.2723 -0.1499
   79DOPC  H16S10848   0.334   5.895   4.196 -0.8342 -1.6050  0.7731
   79DOPC  C21710849   0.542   5.906   4.140  0.4521 -0.1481 -0.6165
   79DOPC  H17R10850   0.505   5.846   4.054  0.4761 -0.7956 -0.1860
   79DOPC  H17S10851   0.634   5.870   4.191  0.2134  3.5927  3.0082
   79DOPC  C21810852   0.560   6.051   4.105  0.0979  0.2306  0.3919
   79DOPC  H18R10853   0.475   6.089   4.044  0.3552  0.3472  0.1025
   79DOPC  H18S10854   0.651   6.069   4.045 -0.0239 -0.9023 -0.1422
   79DOPC  H18T10855   0.559   6.112   4.199  0.2456  0.7735  0.0477
   79DOPC   C3310856   0.208   4.485   5.102  0.2048 -0.1817  0.5492
   79DOPC   H3X10857   0.158   4.510   5.198  0.9213 -0.0112  0.8886
   79DOPC   H3Y10858   0.136   4.453   5.024  1.0056  0.1725 -0.3481
   79DOPC   C3410859   0.274   4.610   5.050  0.5913  0.4558 -0.0256
   79DOPC   H4X10860   0.335   4.634   5.140  0.1175 -0.9076  0.6973
   79DOPC   H4Y10861   0.209   4.700   5.050  0.1566  0.1497  0.3908
   79DOPC   C3510862   0.347   4.594   4.918  0.4428 -0.9080 -0.7298
   79DOPC   H5X10863   0.350   4.487   4.888 -1.7886 -1.6013  1.2853
   79DOPC   H5Y10864   0.446   4.645   4.925 -0.0078  0.0032 -0.8996
   79DOPC   C3610865   0.266   4.664   4.802  0.0714  0.5115 -1.0660
   79DOPC   H6X10866   0.160   4.633   4.807  0.3267 -0.4035 -1.1394
   79DOPC   H6Y10867   0.267   4.769   4.839 -1.7830 -0.2461  1.4107
   79DOPC   C3710868   0.326   4.649   4.660  0.4584  0.2345 -0.4694
   79DOPC   H7X10869   0.435   4.661   4.675  0.1888 -0.0816  2.3388
   79DOPC   H7Y10870   0.313   4.552   4.607  2.2135 -0.2035 -0.1585
   79DOPC   C3810871   0.274   4.756   4.566 -0.0461 -0.8563 -0.0379
   79DOPC   H8X10872   0.273   4.854   4.620  0.3238 -0.6952 -0.3145
   79DOPC   H8Y10873   0.165   4.738   4.554 -0.3354 -1.5483  2.8230
   79DOPC   C3910874   0.376   4.754   4.453 -0.1255  0.2025 -0.3103
   79DOPC   H9X10875   0.473   4.804   4.461 -1.1705  3.0992 -3.3338
   79DOPC  C31010876   0.355   4.681   4.345  0.6409 -0.1681  0.7603
   79DOPC  H10X10877   0.431   4.667   4.266 -0.4283 -1.1028 -0.1450
   79DOPC  C31110878   0.230   4.604   4.309 -0.0922  0.5652  0.0959
   79DOPC  H11X10879   0.154   4.617   4.389 -0.2565 -0.3781  0.1047
   79DOPC  H11Y10880   0.249   4.495   4.295 -0.1512  0.7754 -2.0207
   79DOPC  C31210881   0.165   4.659   4.182  0.7099  0.2844 -0.4440
   79DOPC  H12X10882   0.239   4.687   4.105 -1.7360 -2.3774 -4.1150
   79DOPC  H12Y10883   0.114   4.755   4.201  1.8815  1.2247 -1.8642
   79DOPC  C31310884   0.056   4.566   4.118  0.2721 -0.2948 -0.0434
   79DOPC  H13X10885   0.104   4.473   4.080  0.3245 -0.2260 -0.1473
   79DOPC  H13Y10886  -0.003   4.524   4.202 -1.0773 -0.3130 -0.9844
   79DOPC  C31410887  -0.036   4.644   4.031  0.0724 -0.3704  0.6565
   79DOPC  H14X10888  -0.115   4.572   3.999  1.1477 -0.5756 -1.7145
   79DOPC  H14Y10889  -0.074   4.741   4.069 -0.4787 -0.0932 -0.5508
   79DOPC  C31510890   0.025   4.690   3.895  0.1507  0.5542 -0.1826
   79DOPC  H15X10891   0.127   4.732   3.910  1.3028 -1.6976 -1.2438
   79DOPC  H15Y10892  -0.038   4.768   3.848  0.3760 -0.9716 -3.2510
   79DOPC  C31610893   0.032   4.576   3.789 -0.2264  0.5664 -0.2132
   79DOPC  H16X10894   0.069   4.477   3.823 -0.6780 -0.2184 -1.9054
   79DOPC  H16Y10895  -0.076   4.564   3.766 -1.2268  2.1473  3.1734
   79DOPC  C31710896   0.099   4.612   3.653  0.8172 -0.1166 -0.0511
   79DOPC  H17X10897   0.068   4.714   3.621  1.2762 -0.2199 -0.8486
   79DOPC  H17Y10898   0.208   4.623   3.671  0.6282 -1.9935  3.0686
   79DOPC  C31810899   0.076   4.517   3.540  0.5267  0.1938 -0.2828
   79DOPC  H18X10900  -0.032   4.506   3.517  0.3049  0.3574  0.6624
   79DOPC  H18Y10901   0.133   4.555   3.452  0.3562  2.2778  0.4519
   79DOPC  H18Z10902   0.127   4.420   3.561 -1.5102 -0.7476  0.5585
   80DOPC     N10903   0.097   3.796   6.159  0.0471  0.2108 -0.0390
   80DOPC   C1210904   0.019   3.746   6.034 -0.1468  0.1780 -0.4115
   80DOPC  H12A10905   0.092   3.683   5.986  2.2598  2.8112 -0.5222
   80DOPC  H12B10906   0.014   3.832   5.969  0.4543 -0.1767 -0.9354
   80DOPC   C1310907   0.094   3.705   6.271 -0.0915  1.1780 -0.0699
   80DOPC  H13A10908  -0.008   3.703   6.306 -0.4432 -0.4665 -1.0724
   80DOPC  H13B10909   0.125   3.603   6.250 -2.3789  0.5889 -0.8368
   80DOPC  H13C10910   0.162   3.738   6.349 -0.7150  0.4368  0.8212
   80DOPC   C1410911   0.033   3.923   6.199  0.4038 -0.9415 -0.0301
   80DOPC  H14A10912   0.024   3.987   6.113  0.2510 -2.2936 -1.0615
   80DOPC  H14B10913  -0.064   3.921   6.246 -0.0166  0.9343 -0.7193
   80DOPC  H14C10914   0.098   3.973   6.269 -0.4000  3.4003 -2.0644
   80DOPC   C1510915   0.235   3.832   6.120  0.1073  1.0628 -0.7428
   80DOPC  H15A10916   0.283   3.886   6.200 -1.4560 -0.4066  1.2721
   80DOPC  H15B10917   0.234   3.890   6.028  0.2330 -0.6914 -1.8999
   80DOPC  H15C10918   0.299   3.746   6.106  1.3621  1.6306  1.1494
   80DOPC   C1110919  -0.120   3.674   6.049 -0.6535 -0.3026 -0.1508
   80DOPC  H11A10920  -0.177   3.740   6.118 -1.2225 -0.8994 -0.0474
   80DOPC  H11B10921  -0.155   3.677   5.943 -0.6136  0.8962 -0.1510
   80DOPC     P10922  -0.252   3.468   6.120  0.3852  0.1694  0.0059
   80DOPC   O1310923  -0.345   3.540   6.210  0.7811 -0.3438  0.4464
   80DOPC   O1410924  -0.237   3.322   6.149  0.2811 -0.3604  0.0510
   80DOPC   O1210925  -0.112   3.549   6.110  0.6547 -0.2613  0.5553
   80DOPC   O1110926  -0.304   3.480   5.969 -0.1057 -0.7135  0.0360
   80DOPC    C110927  -0.231   3.423   5.859  0.7735 -0.1465  0.3162
   80DOPC    HA10928  -0.239   3.313   5.867 -2.0969  0.0048  0.6302
   80DOPC    HB10929  -0.124   3.446   5.875  0.2239  0.6316  3.4212
   80DOPC    C210930  -0.293   3.462   5.724 -0.0049  0.1704 -0.4641
   80DOPC    HS10931  -0.302   3.572   5.730 -2.5950 -0.0405  1.2811
   80DOPC   O2110932  -0.419   3.410   5.710  0.3106  0.1167 -0.2478
   80DOPC   C2110933  -0.519   3.500   5.671  0.5974  0.0726 -0.3390
   80DOPC   O2210934  -0.505   3.617   5.640  0.0480  0.1234 -0.3561
   80DOPC   C2210935  -0.656   3.429   5.656 -0.8259  0.6093 -0.3417
   80DOPC   H2R10936  -0.719   3.474   5.736  0.8423  1.0209  0.8128
   80DOPC   H2S10937  -0.648   3.319   5.672 -2.1560  0.8850  2.8985
   80DOPC    C310938  -0.205   3.419   5.611 -0.2440 -0.2351 -0.1102
   80DOPC    HX10939  -0.198   3.309   5.622  2.6636 -0.0643  0.5013
   80DOPC    HY10940  -0.105   3.462   5.628 -0.6994  0.9860 -0.4282
   80DOPC   O3110941  -0.249   3.454   5.481 -0.1514  0.1929 -0.4015
   80DOPC   C3110942  -0.234   3.583   5.448 -0.6701  0.2442 -0.0323
   80DOPC   O3210943  -0.189   3.670   5.521  0.0022  0.0339  0.0694
   80DOPC   C3210944  -0.289   3.608   5.308 -0.1461 -0.5863 -0.3473
   80DOPC   H2X10945  -0.397   3.581   5.312  0.1708 -1.7893  0.6498
   80DOPC   H2Y10946  -0.296   3.719   5.299  2.1780 -0.2672  1.0313
   80DOPC   C2310947  -0.723   3.463   5.525 -0.4035 -0.1662  0.5173
   80DOPC   H3R10948  -0.670   3.417   5.439  1.9630 -0.2247  1.9143
   80DOPC   H3S10949  -0.710   3.572   5.508 -1.3926 -0.0695  0.3647
   80DOPC   C2410950  -0.869   3.425   5.520  0.4490  0.4269  0.1838
   80DOPC   H4R10951  -0.900   3.445   5.415  0.5979 -1.3541 -0.2283
   80DOPC   H4S10952  -0.927   3.484   5.594  0.0866 -0.2754  0.4765
   80DOPC   C2510953  -0.902   3.278   5.566 -0.0072  0.4279  0.1006
   80DOPC   H5R10954  -0.846   3.254   5.658  1.0755  1.1980 -0.3328
   80DOPC   H5S10955  -0.870   3.197   5.497 -1.7902  0.2916 -0.6211
   80DOPC   C2610956  -1.050   3.275   5.583 -0.0621 -0.6801 -0.1368
   80DOPC   H6R10957  -1.090   3.365   5.636 -1.7205 -0.2958 -1.9299
   80DOPC   H6S10958  -1.080   3.184   5.638 -3.3070  1.1836  1.4958
   80DOPC   C2710959  -1.119   3.280   5.452 -0.4212 -0.0405  0.7403
   80DOPC   H7R10960  -1.094   3.182   5.405 -0.9423  0.3695 -0.4464
   80DOPC   H7S10961  -1.084   3.350   5.373 -0.9026 -1.3251 -0.6721
   80DOPC   C2810962  -1.268   3.279   5.456  0.2949  0.1362  0.1023
   80DOPC   H8R10963  -1.296   3.236   5.555 -2.2567  1.8285  0.2330
   80DOPC   H8S10964  -1.313   3.219   5.374 -0.6077  0.7055  0.1619
   80DOPC   C2910965  -1.324   3.417   5.438 -0.2210 -0.1742 -0.9322
   80DOPC   H9R10966  -1.280   3.489   5.508 -0.5125 -0.7973 -0.0820
   80DOPC  C21010967  -1.424   3.460   5.357  0.3700 -0.4802 -0.5394
   80DOPC  H10R10968  -1.433   3.568   5.339 -1.5636 -1.2578 -6.1006
   80DOPC  C21110969  -1.508   3.382   5.255 -0.2410 -0.2535  0.3474
   80DOPC  H11R10970  -1.616   3.386   5.279 -0.5999  2.4377 -1.1792
   80DOPC  H11S10971  -1.475   3.276   5.250 -0.0689 -0.1627 -1.1536
   80DOPC  C21210972  -1.495   3.442   5.111  0.1065 -0.4577 -0.3016
   80DOPC  H12R10973  -1.393   3.480   5.087 -0.4633  0.5593 -1.2200
   80DOPC  H12S10974  -1.568   3.525   5.105  0.3233 -0.2594 -0.2130
   80DOPC  C21310975  -1.536   3.353   4.995 -0.2502  0.5301  0.7326
   80DOPC  H13R10976  -1.460   3.273   4.987 -0.0452  0.3072  3.6677
   80DOPC  H13S10977  -1.522   3.394   4.893  1.7619 -2.6791 -0.4267
   80DOPC  C21410978  -1.670   3.271   4.982 -0.6972 -0.1567 -0.3757
   80DOPC  H14R10979  -1.760   3.335   4.986 -1.2282 -0.7374 -2.1040
   80DOPC  H14S10980  -1.656   3.214   5.077 -0.8206  1.8153  0.8820
   80DOPC  C21510981  -1.673   3.179   4.859  0.4470 -0.0089 -0.2882
   80DOPC  H15R10982  -1.574   3.129   4.849  0.4066 -0.3280  0.8143
   80DOPC  H15S10983  -1.701   3.233   4.767 -0.1108 -0.5462 -0.4378
   80DOPC  C21610984  -1.783   3.069   4.858  0.8290 -0.1394  0.2598
   80DOPC  H16R10985  -1.880   3.121   4.848  0.6559 -0.4905  0.0779
   80DOPC  H16S10986  -1.773   3.015   4.954  2.1474 -0.6049 -0.1131
   80DOPC  C21710987  -1.763   2.959   4.747 -0.8351 -0.0793 -0.1485
   80DOPC  H17R10988  -1.830   2.871   4.748 -0.0250 -0.7084  1.1915
   80DOPC  H17S10989  -1.664   2.911   4.764  1.0170  3.0505 -1.1996
   80DOPC  C21810990  -1.755   3.019   4.600 -0.3301  0.0664 -0.5955
   80DOPC  H18R10991  -1.662   3.080   4.596 -0.1625 -0.1422  0.0646
   80DOPC  H18S10992  -1.847   3.074   4.574 -2.8579 -2.8626  1.3456
   80DOPC  H18T10993  -1.744   2.933   4.529  1.1195 -0.9633  0.8056
   80DOPC   C3310994  -0.207   3.534   5.200  0.9955 -0.1882 -0.6626
   80DOPC   H3X10995  -0.206   3.423   5.203  1.4715 -0.1830  1.6681
   80DOPC   H3Y10996  -0.102   3.566   5.211  1.2407 -0.0003 -3.1324
   80DOPC   C3410997  -0.250   3.568   5.055  0.2237  0.5141  0.2836
   80DOPC   H4X10998  -0.263   3.677   5.039  0.1547  0.6517  1.2014
   80DOPC   H4Y10999  -0.343   3.508   5.039  0.1860 -0.0923  2.4485
   80DOPC   C3511000  -0.152   3.506   4.958 -0.6174  0.7123 -0.1033
   80DOPC   H5X11001  -0.051   3.524   5.001 -0.6943  1.3026 -0.1635
   80DOPC   H5Y11002  -0.148   3.569   4.866  1.9278  1.2130  0.2569
   80DOPC   C3611003  -0.170   3.356   4.929  0.2208 -0.2941  0.5285
   80DOPC   H6X11004  -0.196   3.305   5.024  1.8519 -2.7177 -0.2215
   80DOPC   H6Y11005  -0.255   3.325   4.864  0.9452 -1.4425  0.1127
   80DOPC   C3711006  -0.044   3.295   4.872 -0.6437 -0.3680  0.4938
   80DOPC   H7X11007   0.037   3.340   4.933 -0.4036  1.6782 -1.2358
   80DOPC   H7Y11008  -0.027   3.186   4.883  0.5459 -0.1353  1.1075
   80DOPC   C3811009  -0.027   3.329   4.725  0.6287  0.7145 -0.2586
   80DOPC   H8X11010   0.081   3.325   4.702  0.8234  0.5825  0.6327
   80DOPC   H8Y11011  -0.054   3.434   4.701 -0.6869  1.3178  3.2917
   80DOPC   C3911012  -0.102   3.226   4.648  0.3096  0.8493 -0.5018
   80DOPC   H9X11013  -0.088   3.122   4.681  0.9668  1.1776  0.2911
   80DOPC  C31011014  -0.186   3.233   4.549  0.4541 -0.0460  0.5315
   80DOPC  H10X11015  -0.242   3.142   4.522 -0.7240  0.4471  1.2307
   80DOPC  C31111016  -0.235   3.361   4.477  0.1985 -0.4513 -0.2506
   80DOPC  H11X11017  -0.143   3.414   4.443 -0.1544 -0.1203 -0.7088
   80DOPC  H11Y11018  -0.286   3.428   4.550 -0.6357 -2.3195  0.9478
   80DOPC  C31211019  -0.328   3.348   4.359  0.2431  0.1977 -0.6974
   80DOPC  H12X11020  -0.285   3.278   4.284  0.4466  0.1778 -0.5624
   80DOPC  H12Y11021  -0.347   3.445   4.307  0.9759  0.8920  0.2894
   80DOPC  C31311022  -0.458   3.272   4.404 -0.6537  0.4399  0.4878
   80DOPC  H13X11023  -0.432   3.164   4.410 -1.3079  0.3623  2.6784
   80DOPC  H13Y11024  -0.477   3.303   4.509 -2.0041 -1.1231  0.7541
   80DOPC  C31411025  -0.578   3.298   4.310 -0.2472 -0.1104  0.1580
   80DOPC  H14X11026  -0.671   3.256   4.356 -0.6348 -0.4522 -0.9149
   80DOPC  H14Y11027  -0.587   3.408   4.297 -0.2035  0.0894  1.6703
   80DOPC  C31511028  -0.560   3.238   4.179 -0.2665  1.2296  0.1602
   80DOPC  H15X11029  -0.514   3.138   4.190  0.5030  1.0397 -3.5333
   80DOPC  H15Y11030  -0.492   3.297   4.114 -0.1266  0.2760 -0.5809
   80DOPC  C31611031  -0.693   3.246   4.096 -0.1746 -0.2291 -0.4594
   80DOPC  H16X11032  -0.776   3.202   4.155 -0.8885  0.9740 -0.5349
   80DOPC  H16Y11033  -0.722   3.353   4.087 -0.1945 -0.1674  0.3369
   80DOPC  C31711034  -0.676   3.184   3.956 -0.9443 -0.0644  0.4921
   80DOPC  H17X11035  -0.764   3.216   3.895 -0.5600  0.7178  0.3399
   80DOPC  H17Y11036  -0.581   3.219   3.912 -1.0001  0.1314  0.5282
   80DOPC  C31811037  -0.661   3.035   3.954  0.1448  0.7114  0.5097
   80DOPC  H18X11038  -0.587   2.996   4.028  0.5741 -1.6388 -1.0153
   80DOPC  H18Y11039  -0.758   2.982   3.954 -1.5968  3.7215  1.4465
   80DOPC  H18Z11040  -0.606   3.007   3.861 -0.1873  0.9341  0.2462
   81DOPC     N11041  11.377  11.644   5.834  0.0354  0.1380 -0.3115
   81DOPC   C1211042  11.360  11.791   5.786 -0.2254 -0.3035 -0.3122
   81DOPC  H12A11043  11.305  11.780   5.695 -0.0883 -0.6477 -0.3545
   81DOPC  H12B11044  11.457  11.827   5.755  0.0776 -0.8333  0.0136
   81DOPC   C1311045  11.382  11.567   5.702 -0.6789  0.2076 -0.0168
   81DOPC  H13A11046  11.464  11.600   5.640 -0.9026  0.5248 -0.1461
   81DOPC  H13B11047  11.398  11.462   5.721  1.8835  0.7596  1.1690
   81DOPC  H13C11048  11.286  11.580   5.653 -1.5221 -0.2510  1.4386
   81DOPC   C1411049  11.265  11.587   5.912  0.8846  0.9384 -0.7861
   81DOPC  H14A11050  11.248  11.650   5.998  1.4602 -0.3785  0.3304
   81DOPC  H14B11051  11.177  11.580   5.851  0.1654 -0.3309  0.3365
   81DOPC  H14C11052  11.286  11.485   5.940 -1.5078 -0.0488 -2.3155
   81DOPC   C1511053  11.500  11.636   5.910 -0.4475  0.0919  0.0789
   81DOPC  H15A11054  11.517  11.541   5.959 -1.4632 -0.2705 -0.2555
   81DOPC  H15B11055  11.507  11.709   5.989 -0.9699  1.2376 -0.8931
   81DOPC  H15C11056  11.584  11.664   5.848 -2.0836  3.5270 -0.8559
   81DOPC   C1111057  11.287  11.892   5.878 -0.0398 -0.1860 -0.6136
   81DOPC  H11A11058  11.262  11.991   5.834  0.8434  0.9712  1.3273
   81DOPC  H11B11059  11.187  11.848   5.897  1.5054 -3.6800  0.1583
   81DOPC     P11060  11.498  11.989   5.994 -0.4997 -0.3936 -0.3496
   81DOPC   O1311061  11.601  11.920   6.070 -0.2523 -0.1245  0.1539
   81DOPC   O1411062  11.472  12.123   6.048 -0.0266  0.2108 -0.1624
   81DOPC   O1211063  11.361  11.908   5.995 -0.8058  0.3155 -0.5147
   81DOPC   O1111064  11.535  12.001   5.841  0.0856 -0.1412  0.0101
   81DOPC    C111065  11.654  11.986   5.770 -0.6345  0.5400  0.5063
   81DOPC    HA11066  11.669  11.876   5.765  2.1337  0.8730  0.3010
   81DOPC    HB11067  11.743  12.031   5.818  1.2016 -0.8711 -1.3850
   81DOPC    C211068  11.656  12.048   5.622  0.1097 -0.2698  0.6456
   81DOPC    HS11069  11.750  12.015   5.574  0.0909 -0.7361  0.9252
   81DOPC   O2111070  11.641  12.192   5.617  0.0241 -0.2219  0.3239
   81DOPC   C2111071  11.748  12.261   5.651  0.1666  0.0818 -0.6207
   81DOPC   O2211072  11.852  12.210   5.687  0.6440 -0.2208 -0.2965
   81DOPC   C2211073  11.725  12.410   5.642 -0.0108 -0.1331 -0.1600
   81DOPC   H2R11074  11.769  12.466   5.727  1.6679 -1.3620 -0.1729
   81DOPC   H2S11075  11.616  12.428   5.624  0.0090  1.4644  1.0324
   81DOPC    C311076  11.545  11.987   5.528  0.1532 -0.5842  0.0697
   81DOPC    HX11077  11.448  12.017   5.574  0.2691  2.6882 -1.5227
   81DOPC    HY11078  11.561  11.878   5.518  1.0984 -0.3614 -0.9169
   81DOPC   O3111079  11.553  12.043   5.400 -0.0612  0.4792 -0.4377
   81DOPC   C3111080  11.452  12.107   5.344  0.7874 -0.5352  0.2269
   81DOPC   O3211081  11.333  12.110   5.381 -0.4365 -0.7657  0.3595
   81DOPC   C3211082  11.497  12.184   5.217 -0.2755  0.0643 -0.1146
   81DOPC   H2X11083  11.592  12.236   5.240  0.2162 -1.0652  0.4879
   81DOPC   H2Y11084  11.524  12.117   5.132  1.1537  1.9771 -1.2638
   81DOPC   C2311085  11.797  12.464   5.519 -0.9492 -0.9074  0.1387
   81DOPC   H3R11086  11.908  12.456   5.511 -0.6042  1.9008  0.9768
   81DOPC   H3S11087  11.788  12.575   5.525  0.0444 -0.6255 -2.2096
   81DOPC   C2411088  11.732  12.442   5.385  0.4110  0.4109 -0.2664
   81DOPC   H4R11089  11.629  12.481   5.398 -0.1579 -0.8645 -0.7776
   81DOPC   H4S11090  11.728  12.335   5.354 -0.8326  0.2117  0.5194
   81DOPC   C2511091  11.795  12.514   5.275 -0.3497 -0.1287  0.3121
   81DOPC   H5R11092  11.904  12.490   5.271 -0.6689 -1.5104 -2.3090
   81DOPC   H5S11093  11.799  12.623   5.300  3.0075 -0.2546  0.8402
   81DOPC   C2611094  11.733  12.499   5.142  0.0209 -0.3792 -0.0934
   81DOPC   H6R11095  11.622  12.500   5.150 -0.1570  1.7308 -1.9191
   81DOPC   H6S11096  11.762  12.396   5.112  0.9939  0.0394 -0.6140
   81DOPC   C2711097  11.771  12.611   5.044  0.0759 -0.6031 -0.0299
   81DOPC   H7R11098  11.741  12.710   5.085 -2.6757 -1.4961  0.3270
   81DOPC   H7S11099  11.700  12.596   4.960  0.5706 -0.1665 -0.5283
   81DOPC   C2811100  11.921  12.618   5.002  0.7702  0.2666 -0.0461
   81DOPC   H8R11101  11.952  12.517   4.968  2.5125  0.7176  0.1350
   81DOPC   H8S11102  11.990  12.623   5.089  1.7779  1.0686 -0.8741
   81DOPC   C2911103  11.967  12.726   4.903 -0.0842 -0.2716  0.9876
   81DOPC   H9R11104  11.934  12.827   4.930  3.2325  0.8745  1.1471
   81DOPC  C21011105  12.059  12.714   4.803  0.0408 -0.0053 -0.2950
   81DOPC  H10R11106  12.092  12.803   4.749  1.4124 -0.6730 -0.6032
   81DOPC  C21111107  12.151  12.595   4.763  0.0077 -0.8088  0.0164
   81DOPC  H11R11108  12.129  12.509   4.830 -0.3583 -0.4884  0.3177
   81DOPC  H11S11109  12.258  12.624   4.768 -0.7641  2.3436  0.8502
   81DOPC  C21211110  12.132  12.573   4.611  0.0360  0.8118 -0.7077
   81DOPC  H12R11111  12.173  12.661   4.557  0.8271  0.3166 -0.9354
   81DOPC  H12S11112  12.022  12.556   4.607  0.3853 -2.1644 -0.1272
   81DOPC  C21311113  12.196  12.446   4.560  0.4870  0.0134 -0.0083
   81DOPC  H13R11114  12.148  12.365   4.619  0.5017  1.4606  2.1025
   81DOPC  H13S11115  12.305  12.431   4.576  0.2294 -1.5810  0.4468
   81DOPC  C21411116  12.168  12.423   4.412  0.1516 -0.3870  0.1127
   81DOPC  H14R11117  12.194  12.513   4.352 -0.4606  0.3984  0.9974
   81DOPC  H14S11118  12.062  12.394   4.395 -0.1670  0.5866  0.4174
   81DOPC  C21511119  12.241  12.302   4.356 -0.0294 -0.4709 -0.4413
   81DOPC  H15R11120  12.207  12.211   4.409  1.8069 -2.2753 -2.1877
   81DOPC  H15S11121  12.351  12.311   4.364 -0.1234 -0.4895  1.2704
   81DOPC  C21611122  12.208  12.288   4.207 -0.5457  0.1693  0.0110
   81DOPC  H16R11123  12.288  12.224   4.164 -0.3717  0.7535 -0.5450
   81DOPC  H16S11124  12.225  12.385   4.155 -1.0615  0.0479 -0.3892
   81DOPC  C21711125  12.068  12.227   4.186  0.6805  1.0928 -0.0359
   81DOPC  H17R11126  11.977  12.289   4.199  1.1125  1.5809  0.6817
   81DOPC  H17S11127  12.054  12.141   4.255  2.2781 -0.0146 -0.9984
   81DOPC  C21811128  12.057  12.182   4.043  0.3401  0.5219 -0.6967
   81DOPC  H18R11129  11.952  12.146   4.036  0.2553 -0.1885  2.5194
   81DOPC  H18S11130  12.116  12.092   4.016 -1.1585 -0.2552 -1.4662
   81DOPC  H18T11131  12.073  12.270   3.978  2.0766 -0.0570 -1.0999
   81DOPC   C3311132  11.388  12.281   5.165  0.0566  0.1149  0.1910
   81DOPC   H3X11133  11.403  12.366   5.235 -0.5257  0.4615 -0.1025
   81DOPC   H3Y11134  11.287  12.238   5.184 -0.4702  0.2437 -2.0670
   81DOPC   C3411135  11.417  12.308   5.016 -0.0274 -0.1094 -0.1813
   81DOPC   H4X11136  11.410  12.215   4.955 -0.9406  0.7860 -1.4765
   81DOPC   H4Y11137  11.522  12.345   5.011  0.0312 -0.3774 -1.0426
   81DOPC   C3511138  11.324  12.410   4.951  0.5039 -0.2858 -0.6160
   81DOPC   H5X11139  11.306  12.498   5.015 -1.9171 -1.7771  0.9253
   81DOPC   H5Y11140  11.219  12.372   4.944  0.5180 -0.9742  1.8173
   81DOPC   C3611141  11.361  12.480   4.819 -0.0447  0.1566  0.3739
   81DOPC   H6X11142  11.447  12.546   4.844 -1.2610  1.1508  2.1844
   81DOPC   H6Y11143  11.395  12.401   4.749 -0.3888  1.1345 -0.9605
   81DOPC   C3711144  11.245  12.562   4.764 -0.1914  0.4168  0.5911
   81DOPC   H7X11145  11.197  12.626   4.841 -1.3198 -0.5801  0.7399
   81DOPC   H7Y11146  11.281  12.631   4.684 -0.2094 -0.1858  0.0542
   81DOPC   C3811147  11.125  12.488   4.709  0.4606  0.2438 -0.2361
   81DOPC   H8X11148  11.047  12.568   4.711  0.8379  0.6127 -0.0084
   81DOPC   H8Y11149  11.088  12.414   4.783  0.6813  1.0463  0.6916
   81DOPC   C3911150  11.139  12.434   4.572  0.0886 -0.1771 -0.2987
   81DOPC   H9X11151  11.214  12.354   4.563 -0.6265 -0.6636 -2.6325
   81DOPC  C31011152  11.077  12.478   4.462  0.5340  0.6222  0.0034
   81DOPC  H10X11153  11.096  12.443   4.359 -2.7535  2.3794 -1.3486
   81DOPC  C31111154  10.973  12.585   4.460 -0.3587  0.1990 -0.7548
   81DOPC  H11X11155  10.985  12.666   4.535 -0.2910  1.9961 -2.6085
   81DOPC  H11Y11156  10.877  12.536   4.485  0.5010 -2.0106 -1.5719
   81DOPC  C31211157  10.962  12.663   4.328  0.2946 -0.4278 -0.5854
   81DOPC  H12X11158  11.054  12.726   4.325 -1.0986  1.7087 -2.2694
   81DOPC  H12Y11159  10.873  12.725   4.351  1.4204 -0.0298  3.4791
   81DOPC  C31311160  10.958  12.584   4.196 -0.0921  0.9047  0.2649
   81DOPC  H13X11161  11.050  12.529   4.165 -1.3606 -3.0188  2.7390
   81DOPC  H13Y11162  10.873  12.512   4.196 -0.4130  1.2787 -0.1413
   81DOPC  C31411163  10.942  12.674   4.074 -0.2768  0.2974  0.2412
   81DOPC  H14X11164  10.880  12.763   4.098 -1.1517  0.5157 -2.4676
   81DOPC  H14Y11165  11.041  12.715   4.044  0.0382 -1.3569 -1.1104
   81DOPC  C31511166  10.880  12.608   3.950 -0.7238  0.0710 -0.7548
   81DOPC  H15X11167  10.808  12.536   3.994  0.0473 -0.7544 -0.8193
   81DOPC  H15Y11168  10.959  12.555   3.892 -0.3604 -0.7212  0.4411
   81DOPC  C31611169  10.799  12.703   3.861  0.6164 -0.2033 -0.5492
   81DOPC  H16X11170  10.753  12.637   3.785  0.4717 -1.7632  0.8356
   81DOPC  H16Y11171  10.721  12.745   3.927  0.2120 -1.1909 -0.3858
   81DOPC  C31711172  10.884  12.815   3.789  0.5830  0.3920  0.0048
   81DOPC  H17X11173  10.929  12.887   3.860  1.9988 -1.2474  0.8389
   81DOPC  H17Y11174  10.966  12.771   3.729  0.6303 -0.4927  0.6972
   81DOPC  C31811175  10.793  12.886   3.690 -0.1778  0.5478  0.6311
   81DOPC  H18X11176  10.851  12.976   3.657  0.4164  0.3525  1.1216
   81DOPC  H18Y11177  10.761  12.822   3.606 -0.3714  0.6259  0.6450
   81DOPC  H18Z11178  10.704  12.924   3.745  0.2896 -0.6084  2.2589
   82DOPC     N11179   2.656   8.660   6.603 -0.6234 -0.4076  0.4782
   82DOPC   C1211180   2.722   8.622   6.468 -1.4487  0.5236  0.1060
   82DOPC  H12A11181   2.798   8.696   6.447 -0.7584 -0.3092 -0.4088
   82DOPC  H12B11182   2.650   8.621   6.388 -1.6217 -0.5331  0.2518
   82DOPC   C1311183   2.545   8.567   6.635 -0.7144  0.9701 -0.4857
   82DOPC  H13A11184   2.583   8.466   6.639 -0.3677  0.9923 -2.1850
   82DOPC  H13B11185   2.495   8.575   6.730 -0.2903  0.7645 -0.2394
   82DOPC  H13C11186   2.468   8.563   6.559  1.3837  2.0157 -2.8121
   82DOPC   C1411187   2.594   8.796   6.583 -0.1936  0.6671  0.1043
   82DOPC  H14A11188   2.525   8.800   6.500 -1.4404 -2.3181  0.8986
   82DOPC  H14B11189   2.543   8.837   6.669 -0.2338  1.3646 -0.2396
   82DOPC  H14C11190   2.677   8.863   6.561 -0.2436  0.2717 -1.4241
   82DOPC   C1511191   2.757   8.666   6.708  0.1437 -0.4666 -0.3886
   82DOPC  H15A11192   2.815   8.575   6.712 -0.4977 -0.9475 -1.4258
   82DOPC  H15B11193   2.717   8.691   6.805  1.8844  2.5491 -0.3351
   82DOPC  H15C11194   2.840   8.734   6.695  1.0813 -1.1761  1.5500
   82DOPC   C1111195   2.802   8.490   6.460  0.2367 -1.0084  0.6690
   82DOPC  H11A11196   2.890   8.485   6.393  0.4558 -0.5712  0.9173
   82DOPC  H11B11197   2.844   8.464   6.559  2.3341  0.9243  0.3707
   82DOPC     P11198   2.701   8.323   6.288 -0.1716  0.1588 -0.5769
   82DOPC   O1311199   2.675   8.176   6.299  0.6201 -1.1647 -0.2242
   82DOPC   O1411200   2.818   8.366   6.213 -0.2681  0.3149 -0.2322
   82DOPC   O1211201   2.706   8.388   6.431  0.3791 -0.3926  0.1684
   82DOPC   O1111202   2.578   8.397   6.211 -0.3256 -0.3972 -0.4107
   82DOPC    C111203   2.509   8.343   6.104  0.0303 -0.1692  0.0573
   82DOPC    HA11204   2.405   8.380   6.107 -0.7372 -2.0625 -1.2468
   82DOPC    HB11205   2.488   8.235   6.112  0.9896 -0.5765 -2.1955
   82DOPC    C211206   2.565   8.364   5.959 -0.5863  0.1388  0.1246
   82DOPC    HS11207   2.669   8.323   5.961 -0.6649 -0.2326 -1.6991
   82DOPC   O2111208   2.578   8.507   5.943 -0.6546 -0.3223 -0.4956
   82DOPC   C2111209   2.669   8.544   5.852 -0.7250 -0.1794 -0.3552
   82DOPC   O2211210   2.737   8.463   5.784  0.7051 -0.2905 -0.3313
   82DOPC   C2211211   2.690   8.694   5.866  0.4992  1.2105  0.2257
   82DOPC   H2R11212   2.762   8.704   5.950 -0.9931  0.7065  1.6171
   82DOPC   H2S11213   2.595   8.749   5.883 -0.1306 -0.3843  2.1658
   82DOPC    C311214   2.474   8.299   5.850 -0.1830 -0.7873 -0.3015
   82DOPC    HX11215   2.375   8.348   5.864  0.7264  0.9391  0.3907
   82DOPC    HY11216   2.454   8.196   5.886 -0.1098 -1.2493 -1.5115
   82DOPC   O3111217   2.522   8.308   5.715  0.4763  0.3704  0.3993
   82DOPC   C3111218   2.610   8.219   5.681  0.3997 -0.1877  0.3315
   82DOPC   O3211219   2.644   8.126   5.751  0.4226 -0.3757 -0.3996
   82DOPC   C3211220   2.671   8.241   5.546 -0.2000 -0.8854  0.4228
   82DOPC   H2X11221   2.755   8.312   5.558 -0.7377  0.6227 -3.4302
   82DOPC   H2Y11222   2.712   8.143   5.512 -1.7841 -1.1371 -0.9010
   82DOPC   C2311223   2.757   8.741   5.732 -0.2220  0.6251 -0.1707
   82DOPC   H3R11224   2.846   8.677   5.714  0.1245  1.2431 -0.7036
   82DOPC   H3S11225   2.792   8.846   5.736  1.3398  0.1034  0.3511
   82DOPC   C2411226   2.667   8.717   5.605 -0.2980 -0.1505 -0.0610
   82DOPC   H4R11227   2.576   8.780   5.598 -0.5917 -0.7240 -2.2641
   82DOPC   H4S11228   2.645   8.610   5.587  0.7622 -0.4240  0.2283
   82DOPC   C2511229   2.751   8.774   5.485 -0.2834 -0.0565 -0.3209
   82DOPC   H5R11230   2.850   8.725   5.494 -1.0709 -1.6215  0.3107
   82DOPC   H5S11231   2.778   8.880   5.504  0.1950 -0.0787 -0.8796
   82DOPC   C2611232   2.693   8.762   5.352 -0.7314  0.0185  0.8863
   82DOPC   H6R11233   2.588   8.796   5.337 -1.2696 -2.4350 -1.8201
   82DOPC   H6S11234   2.682   8.655   5.321  1.6954  0.6114 -2.5682
   82DOPC   C2711235   2.766   8.844   5.238  0.5803  0.4392  0.2001
   82DOPC   H7R11236   2.867   8.803   5.218  0.2549  0.6969 -2.3021
   82DOPC   H7S11237   2.777   8.951   5.263 -0.9425  0.7541 -0.3736
   82DOPC   C2811238   2.672   8.850   5.109  0.5090  1.0602 -0.4778
   82DOPC   H8R11239   2.710   8.922   5.034  0.2988  0.6329 -0.9962
   82DOPC   H8S11240   2.571   8.887   5.135  0.5115 -0.0056  1.2441
   82DOPC   C2911241   2.650   8.715   5.048  0.2834 -0.7834  0.5542
   82DOPC   H9R11242   2.564   8.660   5.088 -1.8356  1.8481 -0.1014
   82DOPC  C21011243   2.705   8.680   4.924 -0.6230  0.1897  0.5547
   82DOPC  H10R11244   2.672   8.587   4.876 -1.3408  0.7374 -0.0523
   82DOPC  C21111245   2.803   8.757   4.839 -0.2512  0.2498 -0.1970
   82DOPC  H11R11246   2.796   8.867   4.852 -2.6352  0.0671  0.5586
   82DOPC  H11S11247   2.786   8.736   4.732 -0.3374 -0.0920 -0.1169
   82DOPC  C21211248   2.949   8.729   4.883  0.1724  0.0863 -0.5072
   82DOPC  H12R11249   2.976   8.621   4.876 -0.3551  0.0084 -1.5343
   82DOPC  H12S11250   2.965   8.750   4.991  3.9147  0.0496 -0.9408
   82DOPC  C21311251   3.059   8.786   4.793  0.2251 -0.3017 -0.2178
   82DOPC  H13R11252   3.155   8.763   4.845  1.5862  0.9569 -2.0268
   82DOPC  H13S11253   3.052   8.896   4.778 -0.3064 -0.2933  0.0840
   82DOPC  C21411254   3.074   8.713   4.660  0.7426  0.0570  0.2497
   82DOPC  H14R11255   2.990   8.722   4.588  1.5227 -1.1758 -0.8483
   82DOPC  H14S11256   3.090   8.610   4.699  3.0970  0.5413  0.7253
   82DOPC  C21511257   3.197   8.760   4.579  0.1226 -0.1068 -0.1790
   82DOPC  H15R11258   3.297   8.763   4.627  0.8575  1.5410 -1.7152
   82DOPC  H15S11259   3.187   8.860   4.532 -0.9561 -0.3483 -0.4944
   82DOPC  C21611260   3.198   8.673   4.448 -0.0112  0.7538  0.4194
   82DOPC  H16R11261   3.115   8.711   4.384 -0.3142  0.1596  0.4574
   82DOPC  H16S11262   3.164   8.573   4.482 -0.0796  1.8208  3.8863
   82DOPC  C21711263   3.335   8.663   4.385  0.6351 -0.3045  0.0144
   82DOPC  H17R11264   3.325   8.576   4.316 -2.6230 -1.0764  1.2647
   82DOPC  H17S11265   3.418   8.638   4.455 -0.4032  0.7091  1.6651
   82DOPC  C21811266   3.364   8.792   4.308 -0.6972 -0.1785  0.0445
   82DOPC  H18R11267   3.271   8.818   4.252 -0.3844  0.4613 -0.1844
   82DOPC  H18S11268   3.438   8.777   4.226 -1.0738 -1.2172 -0.1233
   82DOPC  H18T11269   3.391   8.870   4.381  0.0622  0.8268 -1.2631
   82DOPC   C3311270   2.579   8.315   5.445  0.3350 -0.3068  0.0766
   82DOPC   H3X11271   2.558   8.420   5.476 -0.8313 -0.3295 -0.5631
   82DOPC   H3Y11272   2.481   8.265   5.431  0.0995  0.5704 -1.8113
   82DOPC   C3411273   2.648   8.315   5.307  0.0395 -0.1602  0.1200
   82DOPC   H4X11274   2.660   8.209   5.276 -1.2607 -0.0928 -0.6978
   82DOPC   H4Y11275   2.754   8.348   5.310  0.7651 -2.3567  0.4396
   82DOPC   C3511276   2.564   8.391   5.201 -0.5783  0.1495 -0.1291
   82DOPC   H5X11277   2.558   8.497   5.233  0.3984 -0.2107  1.3385
   82DOPC   H5Y11278   2.459   8.355   5.211 -0.7573  1.2451  2.5555
   82DOPC   C3611279   2.590   8.362   5.055  0.0243  0.6569  0.1110
   82DOPC   H6X11280   2.544   8.266   5.024 -0.3803  1.4609 -1.9407
   82DOPC   H6Y11281   2.534   8.426   4.984  0.2098 -0.8587 -1.4709
   82DOPC   C3711282   2.739   8.351   5.022  0.2979 -0.3321 -0.2417
   82DOPC   H7X11283   2.782   8.452   5.033 -2.2552  0.8295 -0.3057
   82DOPC   H7Y11284   2.780   8.290   5.106  2.5642  0.8590 -0.3928
   82DOPC   C3811285   2.780   8.295   4.880 -0.7231 -0.3125  0.6153
   82DOPC   H8X11286   2.890   8.295   4.866 -0.6301 -1.2899  1.2648
   82DOPC   H8Y11287   2.747   8.356   4.793  0.9272 -1.9312 -1.2420
   82DOPC   C3911288   2.728   8.161   4.853  0.0508  0.2364 -0.7176
   82DOPC   H9X11289   2.621   8.160   4.829 -0.5365 -1.5523  1.6484
   82DOPC  C31011290   2.788   8.047   4.892 -0.0225  0.0333 -0.4213
   82DOPC  H10X11291   2.738   7.952   4.866  1.2879 -1.2801  1.5386
   82DOPC  C31111292   2.915   8.025   4.962 -0.7274 -0.7670  0.8742
   82DOPC  H11X11293   2.971   8.121   4.968 -0.9919 -0.2983 -2.3762
   82DOPC  H11Y11294   2.973   7.954   4.900 -2.5466 -0.5336 -1.2193
   82DOPC  C31211295   2.896   7.956   5.102  0.8618 -0.2622  0.1630
   82DOPC  H12X11296   2.820   8.021   5.151  0.8490  0.8095 -1.2153
   82DOPC  H12Y11297   2.987   7.967   5.166  0.9354 -1.2273  0.2262
   82DOPC  C31311298   2.846   7.806   5.103  0.2638 -1.0613 -0.1247
   82DOPC  H13X11299   2.746   7.797   5.056  0.6517 -0.9340 -0.9975
   82DOPC  H13Y11300   2.910   7.745   5.037 -1.8829 -2.0306 -1.3994
   82DOPC  C31411301   2.849   7.745   5.243 -0.0424 -0.1960 -0.2015
   82DOPC  H14X11302   2.956   7.727   5.269 -0.4136 -0.4726  1.1523
   82DOPC  H14Y11303   2.811   7.812   5.322 -3.0874 -2.3421  0.2879
   82DOPC  C31511304   2.780   7.616   5.247  0.4384  0.9472  0.3618
   82DOPC  H15X11305   2.827   7.551   5.171 -0.0965  0.7905  0.1619
   82DOPC  H15Y11306   2.673   7.626   5.218 -0.0232 -1.4486  1.0289
   82DOPC  C31611307   2.795   7.554   5.387  0.3077 -0.1966  0.1888
   82DOPC  H16X11308   2.903   7.534   5.406  0.7584  0.0277 -1.8738
   82DOPC  H16Y11309   2.757   7.622   5.466  1.7329  1.9213 -0.8479
   82DOPC  C31711310   2.726   7.424   5.390 -0.0619  0.0399 -0.0628
   82DOPC  H17X11311   2.621   7.438   5.359  0.6252  0.1256 -2.5899
   82DOPC  H17Y11312   2.761   7.357   5.307  0.4087 -0.3116  0.4133
   82DOPC  C31811313   2.741   7.355   5.522  1.1855 -0.4536  0.3934
   82DOPC  H18X11314   2.841   7.375   5.565  1.3344  1.2193 -0.6635
   82DOPC  H18Y11315   2.661   7.387   5.592  0.6443 -0.9585  0.0217
   82DOPC  H18Z11316   2.730   7.245   5.507 -0.9077 -0.3047  0.5445
   83DOPC     N11317  10.894   7.627   5.811 -0.0253  0.8178  0.4034
   83DOPC   C1211318  10.985   7.707   5.716 -0.0513  0.3731 -0.4987
   83DOPC  H12A11319  10.962   7.668   5.618 -0.5758 -0.1287 -0.1867
   83DOPC  H12B11320  11.085   7.684   5.747 -0.7540 -0.8812  0.9673
   83DOPC   C1311321  10.894   7.669   5.949 -0.2868 -0.3409 -0.2497
   83DOPC  H13A11322  10.845   7.764   5.963  1.0117  0.3353 -0.1303
   83DOPC  H13B11323  10.845   7.598   6.014  3.6042 -2.8769  0.2882
   83DOPC  H13C11324  10.991   7.679   5.998 -1.1404  1.3594  1.2341
   83DOPC   C1411325  10.934   7.485   5.802 -0.1352 -0.7270  0.3362
   83DOPC  H14A11326  10.933   7.458   5.698 -3.7906  1.0093 -0.2376
   83DOPC  H14B11327  11.031   7.477   5.849  0.4863  2.1383 -0.2668
   83DOPC  H14C11328  10.867   7.423   5.858 -2.0991  1.1153  0.1489
   83DOPC   C1511329  10.751   7.635   5.766  0.2535 -0.6847 -0.7088
   83DOPC  H15A11330  10.693   7.562   5.819  2.0485 -0.2545  2.0179
   83DOPC  H15B11331  10.736   7.614   5.661 -0.1145  0.4947 -0.9091
   83DOPC  H15C11332  10.701   7.729   5.787  2.1798  0.2238 -0.0270
   83DOPC   C1111333  10.960   7.856   5.705  0.0593  0.3221  0.0057
   83DOPC  H11A11334  11.013   7.887   5.612 -2.5226  1.8475 -1.0671
   83DOPC  H11B11335  10.852   7.881   5.700  0.3201  2.4505  2.6736
   83DOPC     P11336  11.165   7.945   5.842 -0.2144 -0.2861 -0.3332
   83DOPC   O1311337  11.244   7.825   5.826  0.6333  0.4076  0.6557
   83DOPC   O1411338  11.182   8.021   5.971  0.1512 -0.7214  0.2535
   83DOPC   O1211339  11.012   7.925   5.819 -0.0090 -0.1629  0.0582
   83DOPC   O1111340  11.178   8.039   5.719  0.3164 -0.2877 -0.1338
   83DOPC    C111341  11.118   8.165   5.711  0.4919 -0.1966 -0.5518
   83DOPC    HA11342  11.127   8.236   5.795 -1.4716  1.1602 -1.3926
   83DOPC    HB11343  11.009   8.141   5.702  0.7530 -0.9684 -1.9526
   83DOPC    C211344  11.157   8.239   5.579 -0.1548 -0.3118  0.3538
   83DOPC    HS11345  11.088   8.326   5.570  1.8311  1.2307 -0.6226
   83DOPC   O2111346  11.151   8.154   5.468 -0.8035 -0.1601  0.7064
   83DOPC   C2111347  11.028   8.124   5.428  0.4957 -0.1245 -0.4362
   83DOPC   O2211348  10.925   8.176   5.457 -0.4157  0.0573 -0.5680
   83DOPC   C2211349  11.044   8.014   5.327  0.3555 -0.2986 -0.3219
   83DOPC   H2R11350  11.065   7.927   5.392 -2.2460 -0.0923  0.9450
   83DOPC   H2S11351  11.128   8.039   5.258  0.8327  0.4810  0.5221
   83DOPC    C311352  11.302   8.283   5.580 -0.4580 -0.8089  0.0074
   83DOPC    HX11353  11.361   8.191   5.600 -0.1618 -0.2419  2.0456
   83DOPC    HY11354  11.304   8.346   5.672 -0.7931  1.7272 -1.6527
   83DOPC   O3111355  11.342   8.352   5.464 -0.4986  0.0120 -0.3314
   83DOPC   C3111356  11.472   8.397   5.473  0.1925  0.5555 -0.1570
   83DOPC   O3211357  11.557   8.363   5.551 -0.1637 -0.0661  0.1884
   83DOPC   C3211358  11.492   8.492   5.359  0.4779  0.3856 -0.1345
   83DOPC   H2X11359  11.407   8.563   5.347 -0.4755 -0.5424  0.9374
   83DOPC   H2Y11360  11.585   8.550   5.378  1.7706 -1.2544 -1.2005
   83DOPC   C2311361  10.914   7.988   5.242  0.4141 -0.1896  0.0638
   83DOPC   H3R11362  10.916   8.076   5.174  1.5768 -0.8238 -0.7569
   83DOPC   H3S11363  10.820   7.992   5.302  1.4477  1.9555  1.7141
   83DOPC   C2411364  10.916   7.864   5.149  0.5309  0.0755  0.2971
   83DOPC   H4R11365  10.863   7.784   5.204 -0.6341  1.0079  0.5619
   83DOPC   H4S11366  11.017   7.825   5.123  0.6704  0.3051  0.4821
   83DOPC   C2511367  10.831   7.882   5.022 -0.3002  0.3717  0.1251
   83DOPC   H5R11368  10.820   7.791   4.960 -0.2366  0.2358  0.3160
   83DOPC   H5S11369  10.875   7.967   4.964  0.1624  0.3583  0.4529
   83DOPC   C2611370  10.689   7.931   5.066 -0.1180 -0.3093  0.4007
   83DOPC   H6R11371  10.681   8.034   5.106 -0.6562 -0.5391  0.8956
   83DOPC   H6S11372  10.641   7.864   5.140 -0.7161 -1.3692 -0.9044
   83DOPC   C2711373  10.587   7.922   4.945 -0.0059  0.2746 -0.1292
   83DOPC   H7R11374  10.603   8.000   4.867 -2.8303 -0.2703 -1.3866
   83DOPC   H7S11375  10.498   7.961   5.001 -0.3449 -1.8057  0.8614
   83DOPC   C2811376  10.549   7.789   4.873  0.0186 -0.1472 -0.0018
   83DOPC   H8R11377  10.441   7.793   4.844 -0.2842  2.0309  1.2659
   83DOPC   H8S11378  10.563   7.702   4.940  0.2381 -1.0840 -1.2276
   83DOPC   C2911379  10.636   7.772   4.756 -0.1784  0.1376  0.1610
   83DOPC   H9R11380  10.743   7.777   4.782 -0.5904  0.1573  1.9801
   83DOPC  C21011381  10.601   7.749   4.625  0.6652 -0.4113  0.3158
   83DOPC  H10R11382  10.674   7.760   4.543  2.1562 -1.3248  1.4698
   83DOPC  C21111383  10.459   7.745   4.578  0.3696  0.4385 -0.3559
   83DOPC  H11R11384  10.421   7.848   4.561  0.6659  0.7964  0.9949
   83DOPC  H11S11385  10.388   7.696   4.648  0.3525  0.2202 -0.5274
   83DOPC  C21211386  10.435   7.685   4.436 -0.1852  0.1178  0.4977
   83DOPC  H12R11387  10.488   7.588   4.432 -0.3811 -0.0109  0.9954
   83DOPC  H12S11388  10.481   7.760   4.368 -0.7447  0.6340  0.6777
   83DOPC  C21311389  10.284   7.678   4.397  0.2225 -0.1815 -0.0421
   83DOPC  H13R11390  10.226   7.769   4.426 -0.1136 -0.3943 -0.0386
   83DOPC  H13S11391  10.234   7.602   4.461 -0.9455  0.5811 -0.0053
   83DOPC  C21411392  10.262   7.650   4.248  0.3535  0.0155  0.0240
   83DOPC  H14R11393  10.170   7.596   4.219 -0.3953  1.7547 -0.9607
   83DOPC  H14S11394  10.350   7.589   4.215  0.2121  0.1887 -0.6860
   83DOPC  C21511395  10.253   7.774   4.157  0.0328  0.0964 -0.0008
   83DOPC  H15R11396  10.254   7.732   4.055  0.7668 -0.9610  0.4215
   83DOPC  H15S11397  10.339   7.845   4.162 -0.1568  0.3985 -0.8309
   83DOPC  C21611398  10.136   7.865   4.185  0.7348 -0.5753  0.4471
   83DOPC  H16R11399  10.164   7.926   4.273 -0.0405  0.6395 -0.1193
   83DOPC  H16S11400  10.041   7.810   4.200 -1.0126  1.2799 -2.6736
   83DOPC  C21711401  10.120   7.961   4.057 -0.1238  0.0568 -0.1462
   83DOPC  H17R11402  10.083   7.889   3.981  0.4130  0.0737 -0.4298
   83DOPC  H17S11403  10.224   7.982   4.026 -0.4917  0.4525 -1.1436
   83DOPC  C21811404  10.036   8.088   4.069  0.1438 -0.3824 -0.3285
   83DOPC  H18R11405   9.995   8.119   3.971  2.1468 -1.7410 -1.6669
   83DOPC  H18S11406  10.080   8.173   4.125 -0.6882 -0.0683 -0.1312
   83DOPC  H18T11407   9.949   8.060   4.132  0.4590 -0.7456 -0.0509
   83DOPC   C3311408  11.508   8.416   5.228  0.0468 -1.0035  0.3686
   83DOPC   H3X11409  11.416   8.358   5.206 -0.8802  0.8747 -1.0286
   83DOPC   H3Y11410  11.593   8.344   5.233  1.5189  0.0836 -4.0556
   83DOPC   C3411411  11.548   8.524   5.115  0.2497  0.3521 -0.5984
   83DOPC   H4X11412  11.630   8.578   5.168 -1.1493 -0.1186  2.2185
   83DOPC   H4Y11413  11.464   8.594   5.097  0.7578  0.8241 -1.2056
   83DOPC   C3511414  11.612   8.459   4.987  0.0791 -0.8381 -0.3597
   83DOPC   H5X11415  11.546   8.375   4.954 -1.3351  0.5414 -1.2034
   83DOPC   H5Y11416  11.707   8.424   5.031  0.3836 -0.0072 -0.3450
   83DOPC   C3611417  11.631   8.566   4.882 -0.3199  0.2666  0.2073
   83DOPC   H6X11418  11.674   8.661   4.922  1.3833  0.0319 -0.9317
   83DOPC   H6Y11419  11.701   8.531   4.803  0.5773  0.6287  0.8275
   83DOPC   C3711420  11.501   8.611   4.810  0.6052  0.3356 -0.1104
   83DOPC   H7X11421  11.457   8.517   4.769  0.2490  1.4800 -2.5436
   83DOPC   H7Y11422  11.423   8.645   4.881 -0.2516  0.1623 -0.9382
   83DOPC   C3811423  11.523   8.714   4.693 -0.7065 -0.1293  0.2356
   83DOPC   H8X11424  11.594   8.674   4.618 -0.5628 -2.0664  1.3200
   83DOPC   H8Y11425  11.593   8.785   4.742  2.0236 -3.0075  0.7829
   83DOPC   C3911426  11.410   8.790   4.625  0.2298 -0.4952  0.7237
   83DOPC   H9X11427  11.316   8.805   4.681 -0.9101 -0.4007 -1.1469
   83DOPC  C31011428  11.405   8.836   4.499  0.2732 -0.1727 -0.5303
   83DOPC  H10X11429  11.314   8.893   4.472 -0.0514 -1.4630 -2.3412
   83DOPC  C31111430  11.516   8.829   4.396  0.8540  0.0518  0.1631
   83DOPC  H11X11431  11.610   8.792   4.443  0.0477 -1.2403  0.8106
   83DOPC  H11Y11432  11.528   8.934   4.361 -3.4194  1.2750  1.7392
   83DOPC  C31211433  11.487   8.748   4.269 -0.2852 -0.5296  0.7429
   83DOPC  H12X11434  11.450   8.644   4.274 -0.0941 -0.5914  0.9066
   83DOPC  H12Y11435  11.580   8.748   4.207 -1.2914 -1.8664 -0.8295
   83DOPC  C31311436  11.391   8.834   4.182 -0.0163 -0.5868  0.3940
   83DOPC  H13X11437  11.299   8.849   4.244  1.1954  1.1984  1.8771
   83DOPC  H13Y11438  11.413   8.941   4.165 -1.6650 -0.0143  1.6204
   83DOPC  C31411439  11.368   8.788   4.037 -0.4104  0.9423 -0.8583
   83DOPC  H14X11440  11.310   8.871   3.991 -2.2955  0.7600  1.0335
   83DOPC  H14Y11441  11.463   8.792   3.980  0.1189 -0.0526 -0.0845
   83DOPC  C31511442  11.292   8.656   4.002 -0.2597 -1.0207  0.4551
   83DOPC  H15X11443  11.227   8.676   3.914  2.3137  1.2282 -1.1139
   83DOPC  H15Y11444  11.223   8.650   4.088 -0.7500  1.6881  0.3405
   83DOPC  C31611445  11.387   8.533   3.987 -0.2561 -0.3366 -0.4568
   83DOPC  H16X11446  11.430   8.531   3.885  1.0994 -0.5003  0.0960
   83DOPC  H16Y11447  11.473   8.546   4.057 -0.2654 -0.7605 -0.3618
   83DOPC  C31711448  11.322   8.399   4.016  0.6839 -0.1120  0.2704
   83DOPC  H17X11449  11.281   8.406   4.120 -2.9162 -0.5733 -0.9743
   83DOPC  H17Y11450  11.234   8.386   3.950  1.0365 -0.5901 -0.1107
   83DOPC  C31811451  11.407   8.282   3.991 -0.1252  0.6522 -0.3234
   83DOPC  H18X11452  11.419   8.251   3.884 -0.3117  1.2416 -0.5162
   83DOPC  H18Y11453  11.510   8.299   4.030  1.1559 -1.8602 -2.2812
   83DOPC  H18Z11454  11.363   8.188   4.030  2.1874 -0.7552 -0.8881
   84DOPC     N11455   4.354   7.585   6.543 -0.1713  0.5010  0.3222
   84DOPC   C1211456   4.267   7.516   6.436  0.1615  1.3103  0.0605
   84DOPC  H12A11457   4.180   7.486   6.493  2.1816 -0.9267  2.2410
   84DOPC  H12B11458   4.311   7.419   6.415  1.2331  1.7722  0.1195
   84DOPC   C1311459   4.438   7.491   6.610  0.3080  0.4074  0.3113
   84DOPC  H13A11460   4.383   7.431   6.680  1.1171  0.7488  1.2651
   84DOPC  H13B11461   4.482   7.424   6.537 -0.3495 -0.2545  0.5175
   84DOPC  H13C11462   4.509   7.545   6.671 -2.3241 -0.1542  4.1434
   84DOPC   C1411463   4.268   7.654   6.640  0.5928  0.4958  0.1386
   84DOPC  H14A11464   4.191   7.586   6.676 -0.6522  1.3366 -0.8368
   84DOPC  H14B11465   4.330   7.697   6.716  1.8535 -0.2131 -0.4667
   84DOPC  H14C11466   4.221   7.728   6.576  1.0450  1.3967  0.8291
   84DOPC   C1511467   4.438   7.687   6.475  0.4619  0.2864 -0.4477
   84DOPC  H15A11468   4.502   7.743   6.543  0.0835 -0.4133  0.5160
   84DOPC  H15B11469   4.375   7.756   6.422 -1.9522  0.5871  2.5332
   84DOPC  H15C11470   4.514   7.639   6.415  1.6412 -0.4153  1.4975
   84DOPC   C1111471   4.238   7.584   6.299 -0.1799  1.3050 -0.4916
   84DOPC  H11A11472   4.339   7.599   6.254  0.0081  1.0621 -0.1581
   84DOPC  H11B11473   4.197   7.504   6.233 -1.0534 -1.1405  2.7424
   84DOPC     P11474   3.999   7.684   6.333  0.2808 -0.1646 -0.3687
   84DOPC   O1311475   3.924   7.814   6.332 -0.4361 -0.2327  0.3655
   84DOPC   O1411476   3.966   7.594   6.446 -0.4364  0.6503 -0.0795
   84DOPC   O1211477   4.154   7.704   6.319 -0.1067 -0.1572  0.2736
   84DOPC   O1111478   3.956   7.599   6.206 -0.1959  0.4254 -0.1984
   84DOPC    C111479   3.993   7.645   6.075 -0.2165 -0.2731  0.4034
   84DOPC    HA11480   4.102   7.666   6.069 -0.2379 -0.2789  0.0086
   84DOPC    HB11481   3.939   7.737   6.044 -0.2622 -0.2740  0.4775
   84DOPC    C211482   3.952   7.529   5.976 -0.3498 -0.4903 -0.2018
   84DOPC    HS11483   3.983   7.431   6.016 -2.8154 -0.9410  0.7381
   84DOPC   O2111484   4.000   7.566   5.845  0.2683 -0.0839 -0.3378
   84DOPC   C2111485   4.121   7.530   5.814 -0.8403 -0.1603 -0.2104
   84DOPC   O2211486   4.200   7.473   5.888  0.1708 -0.1443 -0.3858
   84DOPC   C2211487   4.135   7.560   5.659 -0.3201 -0.3353  0.4103
   84DOPC   H2R11488   4.104   7.665   5.639  1.5333  0.3074  0.7231
   84DOPC   H2S11489   4.057   7.487   5.627 -1.8243 -0.0941  3.1434
   84DOPC    C311490   3.795   7.528   5.963  0.0254  0.2628  0.0396
   84DOPC    HX11491   3.778   7.633   5.932 -1.4209 -0.2524 -1.0051
   84DOPC    HY11492   3.745   7.508   6.060  2.2433 -2.2962  0.7986
   84DOPC   O3111493   3.736   7.457   5.854  0.0794 -0.1502  0.5259
   84DOPC   C3111494   3.759   7.326   5.860  0.8407 -0.5380 -0.6385
   84DOPC   O3211495   3.815   7.267   5.952  0.0086 -0.0951  0.0350
   84DOPC   C3211496   3.677   7.263   5.740 -1.1199  0.1335  0.2418
   84DOPC   H2X11497   3.641   7.164   5.777 -3.7003  1.5960  1.9314
   84DOPC   H2Y11498   3.594   7.335   5.726  0.7966  2.4842  0.2741
   84DOPC   C2311499   4.273   7.531   5.610  0.4653 -0.4194  0.6080
   84DOPC   H3R11500   4.324   7.453   5.669  1.3616  1.0452  1.8653
   84DOPC   H3S11501   4.336   7.621   5.627 -0.0219  0.3999 -1.5819
   84DOPC   C2411502   4.273   7.491   5.456  0.0930  0.0968 -0.2202
   84DOPC   H4R11503   4.378   7.484   5.423  0.4904 -0.9025  1.1366
   84DOPC   H4S11504   4.218   7.571   5.401  2.0794  1.1281 -0.7828
   84DOPC   C2511505   4.213   7.352   5.422  0.0321  0.0804  0.4889
   84DOPC   H5R11506   4.107   7.346   5.454 -0.1074  0.0825  0.0243
   84DOPC   H5S11507   4.262   7.269   5.478 -1.6399 -1.6429 -0.4726
   84DOPC   C2611508   4.227   7.322   5.275 -0.3632 -0.1995  0.9721
   84DOPC   H6R11509   4.223   7.212   5.269  0.1082 -0.1523 -0.7021
   84DOPC   H6S11510   4.316   7.359   5.220 -0.1014 -1.7114  0.3280
   84DOPC   C2711511   4.104   7.350   5.188 -0.0804 -0.2062  0.1374
   84DOPC   H7R11512   4.066   7.449   5.223 -2.2073 -0.5301 -1.0960
   84DOPC   H7S11513   4.024   7.276   5.208 -0.1386 -0.1853 -0.0144
   84DOPC   C2811514   4.128   7.379   5.036 -0.1311  0.3335  0.4456
   84DOPC   H8R11515   4.156   7.283   4.988 -0.1560  1.1111 -1.2028
   84DOPC   H8S11516   4.210   7.452   5.018 -0.8278  0.8688 -0.7115
   84DOPC   C2911517   4.000   7.444   4.978 -0.2513 -0.2541  0.8537
   84DOPC   H9R11518   3.954   7.514   5.049  0.5929 -0.0090  1.1755
   84DOPC  C21011519   3.947   7.426   4.855 -0.2404 -1.3404  0.4611
   84DOPC  H10R11520   3.864   7.488   4.818 -0.0507 -0.9106  0.7476
   84DOPC  C21111521   4.005   7.320   4.765  0.2028  0.7875  0.5680
   84DOPC  H11R11522   4.042   7.241   4.834  0.6946  0.4673 -0.0509
   84DOPC  H11S11523   4.089   7.354   4.701  0.2738 -1.0845 -0.3951
   84DOPC  C21211524   3.907   7.260   4.660 -0.2580  0.7538 -0.8004
   84DOPC  H12R11525   3.816   7.224   4.711  0.2648 -0.1311 -0.4744
   84DOPC  H12S11526   3.953   7.168   4.619 -1.2249 -0.2394  0.2918
   84DOPC  C21311527   3.869   7.349   4.542 -0.2256  0.9255 -0.1227
   84DOPC  H13R11528   3.963   7.376   4.490  0.1311  0.3883  0.2272
   84DOPC  H13S11529   3.810   7.435   4.580 -2.7879 -0.0803 -1.5313
   84DOPC  C21411530   3.784   7.268   4.444  0.2312  0.1111  0.7620
   84DOPC  H14R11531   3.707   7.214   4.504 -0.6940 -2.3480 -2.3162
   84DOPC  H14S11532   3.853   7.187   4.410 -1.8630 -2.6788  2.6540
   84DOPC  C21511533   3.718   7.345   4.334  0.3211 -0.0616 -0.2953
   84DOPC  H15R11534   3.785   7.426   4.298  0.1725 -0.6990 -2.1138
   84DOPC  H15S11535   3.627   7.399   4.368  1.5229  1.3761  0.7834
   84DOPC  C21611536   3.681   7.255   4.215  0.3099  0.1300  0.3272
   84DOPC  H16R11537   3.750   7.169   4.203 -0.1791 -0.2052 -0.1260
   84DOPC  H16S11538   3.696   7.324   4.128  0.8190  1.1177  1.1712
   84DOPC  C21711539   3.537   7.194   4.200 -0.0081  0.2999 -0.3290
   84DOPC  H17R11540   3.455   7.266   4.222 -1.6662 -1.7591  0.5231
   84DOPC  H17S11541   3.534   7.106   4.268 -0.7871  1.8987  1.8095
   84DOPC  C21811542   3.514   7.140   4.054 -0.2671  0.5022  0.0315
   84DOPC  H18R11543   3.595   7.069   4.026 -1.1944 -0.7362  0.3844
   84DOPC  H18S11544   3.514   7.225   3.983 -0.8698  0.0543 -0.5099
   84DOPC  H18T11545   3.424   7.080   4.033  2.0861 -2.8307 -1.4506
   84DOPC   C3311546   3.760   7.263   5.617  0.3078  0.3098 -0.0174
   84DOPC   H3X11547   3.867   7.243   5.640 -0.1487 -0.9024  1.2392
   84DOPC   H3Y11548   3.752   7.367   5.580 -0.3635 -0.0782 -1.0017
   84DOPC   C3411549   3.720   7.154   5.508 -0.2683  0.1579  0.0210
   84DOPC   H4X11550   3.612   7.159   5.481 -0.5398  0.9582  1.2091
   84DOPC   H4Y11551   3.737   7.056   5.559  0.9000 -0.0160 -0.6569
   84DOPC   C3511552   3.803   7.152   5.383  0.1209  0.3689 -0.2422
   84DOPC   H5X11553   3.909   7.156   5.415 -0.1295  0.5258  0.5807
   84DOPC   H5Y11554   3.789   7.249   5.331 -0.7294 -0.3801 -1.4851
   84DOPC   C3611555   3.778   7.036   5.283  0.6337  0.0677 -0.0257
   84DOPC   H6X11556   3.801   6.937   5.328 -0.4968 -0.3608 -0.3536
   84DOPC   H6Y11557   3.670   7.032   5.256  0.7807  0.6493 -0.7176
   84DOPC   C3711558   3.847   7.050   5.144  0.3189 -0.1527 -0.3029
   84DOPC   H7X11559   3.806   7.143   5.100 -0.6073 -0.0756  0.6597
   84DOPC   H7Y11560   3.956   7.048   5.162  0.0590 -1.5329  1.5258
   84DOPC   C3811561   3.810   6.924   5.065  0.2552 -0.0176  0.3441
   84DOPC   H8X11562   3.702   6.935   5.038  0.8659  0.5995 -2.0493
   84DOPC   H8Y11563   3.808   6.826   5.117  0.7837  0.3673  1.1009
   84DOPC   C3911564   3.905   6.901   4.949  0.4110  0.3405  0.2539
   84DOPC   H9X11565   4.010   6.900   4.980  0.8343 -1.8310 -1.0843
   84DOPC  C31011566   3.870   6.880   4.818  0.3375  0.3726  0.0197
   84DOPC  H10X11567   3.942   6.869   4.736  0.5496 -0.1263  0.2682
   84DOPC  C31111568   3.726   6.878   4.766  0.2806  0.1983 -0.0380
   84DOPC  H11X11569   3.688   6.979   4.740  1.5623  1.3474  2.2132
   84DOPC  H11Y11570   3.653   6.846   4.844  1.2268 -0.1168  0.7413
   84DOPC  C31211571   3.709   6.786   4.645  0.0312 -0.2606 -0.4766
   84DOPC  H12X11572   3.604   6.753   4.628  0.1758 -1.7116  1.2124
   84DOPC  H12Y11573   3.760   6.688   4.652 -0.1249 -0.2673  0.6145
   84DOPC  C31311574   3.774   6.839   4.516 -0.0374  0.2376  0.3567
   84DOPC  H13X11575   3.725   6.935   4.490  0.4657  1.6163  3.8512
   84DOPC  H13Y11576   3.880   6.861   4.541  0.1829  0.4847 -0.7505
   84DOPC  C31411577   3.784   6.740   4.393  0.4701 -0.3628  0.5870
   84DOPC  H14X11578   3.859   6.660   4.414  0.9921  0.1556  0.7193
   84DOPC  H14Y11579   3.680   6.705   4.377 -0.3029  1.8980  0.3557
   84DOPC  C31511580   3.820   6.798   4.257  0.5482 -0.5700  0.1897
   84DOPC  H15X11581   3.749   6.874   4.220  0.2218 -1.0438 -0.1713
   84DOPC  H15Y11582   3.813   6.715   4.183  0.0888 -1.7117  1.4586
   84DOPC  C31611583   3.962   6.866   4.272 -0.2200  0.6296  0.9079
   84DOPC  H16X11584   3.964   6.957   4.336 -2.7030  0.6073  1.1162
   84DOPC  H16Y11585   4.034   6.792   4.314 -0.8350  0.0033  0.8818
   84DOPC  C31711586   4.024   6.911   4.137 -0.1958 -0.2599  0.3867
   84DOPC  H17X11587   3.987   6.838   4.061  2.3246  0.0701 -1.2831
   84DOPC  H17Y11588   3.983   7.011   4.109 -0.6367 -0.5224  0.0834
   84DOPC  C31811589   4.179   6.916   4.149  0.3457  0.9043  0.2305
   84DOPC  H18X11590   4.204   7.015   4.194  1.1247  0.6722  0.3329
   84DOPC  H18Y11591   4.212   6.833   4.216  0.3208 -0.1502 -1.0248
   84DOPC  H18Z11592   4.235   6.890   4.057  0.1209 -3.8338  1.1835
   85DOPC     N11593   1.024   0.891   5.941 -0.2557  0.3454 -0.3697
   85DOPC   C1211594   1.121   1.007   5.926  0.5303  0.6103 -0.1287
   85DOPC  H12A11595   1.132   1.055   6.022  0.7150  0.2819  0.0156
   85DOPC  H12B11596   1.079   1.082   5.860  2.0685 -0.4443 -2.4841
   85DOPC   C1311597   1.072   0.789   6.031 -0.1976 -0.1449  0.1210
   85DOPC  H13A11598   1.010   0.701   6.028 -1.1442  0.5329 -1.1030
   85DOPC  H13B11599   1.168   0.750   5.999 -0.5284  0.3954 -1.6133
   85DOPC  H13C11600   1.080   0.811   6.136 -0.8842  0.9836 -0.0516
   85DOPC   C1411601   1.008   0.825   5.809  0.3336 -0.6078  0.1903
   85DOPC  H14A11602   0.956   0.885   5.735 -1.6579 -2.5341 -0.0763
   85DOPC  H14B11603   1.105   0.801   5.769 -0.2715 -0.5153 -1.3810
   85DOPC  H14C11604   0.944   0.739   5.818  0.9066 -1.4275 -2.6711
   85DOPC   C1511605   0.895   0.939   5.982 -0.8425 -0.6396  0.2404
   85DOPC  H15A11606   0.852   0.998   5.902 -2.0634 -0.1984  1.1970
   85DOPC  H15B11607   0.885   0.995   6.074 -0.1740  0.4023 -0.2989
   85DOPC  H15C11608   0.829   0.855   5.994  0.0225 -1.4502 -0.4826
   85DOPC   C1111609   1.260   0.980   5.857 -0.6013 -0.5574 -0.3085
   85DOPC  H11A11610   1.245   0.970   5.747  0.5178 -1.1653 -0.4204
   85DOPC  H11B11611   1.319   1.072   5.874 -0.9985 -0.5509  1.1792
   85DOPC     P11612   1.415   0.766   5.827 -0.3958  0.1239  0.3425
   85DOPC   O1311613   1.447   0.654   5.920 -0.4603  0.6142 -0.1081
   85DOPC   O1411614   1.529   0.832   5.752  0.7787  0.2568  0.4634
   85DOPC   O1211615   1.335   0.877   5.916  0.3721  0.3509 -0.0851
   85DOPC   O1111616   1.295   0.724   5.737  0.0442  0.4854 -0.0923
   85DOPC    C111617   1.302   0.616   5.653 -0.1992  0.6759  0.7819
   85DOPC    HA11618   1.206   0.564   5.677  0.1642 -0.8991 -0.8999
   85DOPC    HB11619   1.381   0.541   5.673 -0.1016  0.6160  0.2045
   85DOPC    C211620   1.294   0.659   5.503 -0.6346  0.0674 -0.4524
   85DOPC    HS11621   1.318   0.566   5.447 -0.6264  0.3515 -0.9232
   85DOPC   O2111622   1.383   0.763   5.480  0.7966 -0.5723  0.1131
   85DOPC   C2111623   1.506   0.726   5.472 -0.4105 -0.0096 -0.1450
   85DOPC   O2211624   1.545   0.612   5.466  0.5153 -0.0411  0.1281
   85DOPC   C2211625   1.591   0.858   5.456 -0.0473 -0.0525  0.4591
   85DOPC   H2R11626   1.591   0.918   5.550 -0.4942  1.6875 -0.6091
   85DOPC   H2S11627   1.537   0.914   5.377  0.9294 -0.1103 -0.2679
   85DOPC    C311628   1.153   0.709   5.471 -0.0770 -0.0389 -0.5806
   85DOPC    HX11629   1.171   0.757   5.372  0.6211  0.2293 -0.3268
   85DOPC    HY11630   1.133   0.786   5.549 -1.4917 -2.0425  1.1563
   85DOPC   O3111631   1.057   0.597   5.467 -0.4156 -0.2744  0.4898
   85DOPC   C3111632   0.931   0.632   5.491 -0.0167  0.4511  0.3598
   85DOPC   O3211633   0.893   0.740   5.531  0.8231 -0.3190  0.0385
   85DOPC   C3211634   0.836   0.518   5.469  0.6843  0.4632 -0.5682
   85DOPC   H2X11635   0.879   0.459   5.385 -0.6513  0.8802 -1.5942
   85DOPC   H2Y11636   0.833   0.461   5.564 -0.3840  2.2710  0.5367
   85DOPC   C2311637   1.735   0.819   5.425 -0.4154 -0.6055 -0.4645
   85DOPC   H3R11638   1.735   0.754   5.335  0.2342 -0.4204 -0.5982
   85DOPC   H3S11639   1.789   0.770   5.509  2.4200  0.2769 -1.6527
   85DOPC   C2411640   1.818   0.941   5.386 -0.2604  0.1002  0.4491
   85DOPC   H4R11641   1.808   1.021   5.462  1.1956 -0.4489  1.2692
   85DOPC   H4S11642   1.778   0.983   5.291  1.5757  1.3281  0.1694
   85DOPC   C2511643   1.969   0.907   5.359 -0.4944 -0.0425 -0.0588
   85DOPC   H5R11644   2.004   0.811   5.402  3.3516  1.6762  1.0384
   85DOPC   H5S11645   2.032   0.981   5.414  0.6594 -0.5494 -0.6731
   85DOPC   C2611646   2.009   0.939   5.213 -0.0196  0.5144  0.0504
   85DOPC   H6R11647   1.946   0.892   5.134 -0.1729  1.6308 -0.5100
   85DOPC   H6S11648   2.117   0.914   5.209  0.1191  1.0190  0.5731
   85DOPC   C2711649   2.003   1.098   5.193  0.3832  0.1650 -0.4803
   85DOPC   H7R11650   2.031   1.157   5.283 -1.4588  0.5659 -0.1213
   85DOPC   H7S11651   1.896   1.114   5.166 -1.0377 -1.9739  3.1960
   85DOPC   C2811652   2.098   1.142   5.082 -0.1876 -0.0471  0.6056
   85DOPC   H8R11653   2.071   1.090   4.987  1.5375 -1.2876  0.7638
   85DOPC   H8S11654   2.203   1.113   5.101 -0.1536 -0.2494  0.1223
   85DOPC   C2911655   2.075   1.294   5.060  0.0941 -0.6580 -0.0927
   85DOPC   H9R11656   2.043   1.340   5.155 -0.2574 -0.3082 -0.3749
   85DOPC  C21011657   2.079   1.364   4.943 -0.0644 -0.0677 -0.8937
   85DOPC  H10R11658   2.047   1.469   4.954  1.1458  0.3244 -1.0361
   85DOPC  C21111659   2.113   1.308   4.807  0.5231 -0.7974 -0.0801
   85DOPC  H11R11660   2.195   1.234   4.823  0.8440 -0.7533 -1.3971
   85DOPC  H11S11661   2.150   1.394   4.747 -0.9027  0.8251  1.2844
   85DOPC  C21211662   1.998   1.229   4.740  0.2443  0.6764 -0.1628
   85DOPC  H12R11663   1.911   1.298   4.744  0.1957  0.6445 -0.6237
   85DOPC  H12S11664   1.979   1.135   4.796 -0.0909  0.2921 -0.9198
   85DOPC  C21311665   2.021   1.189   4.599 -0.4950  0.9948  0.6159
   85DOPC  H13R11666   2.078   1.094   4.599  0.6515  1.6424  1.7288
   85DOPC  H13S11667   2.091   1.267   4.561 -0.1954  0.3753 -0.1226
   85DOPC  C21411668   1.891   1.192   4.518  0.3102 -0.9435 -0.3507
   85DOPC  H14R11669   1.831   1.281   4.546  1.9753  0.6759 -1.6803
   85DOPC  H14S11670   1.843   1.092   4.526 -1.9038  0.1624  1.0872
   85DOPC  C21511671   1.911   1.225   4.373 -0.2435 -0.2301  0.1240
   85DOPC  H15R11672   1.970   1.140   4.334  0.8928  1.4681 -2.0562
   85DOPC  H15S11673   1.974   1.317   4.370 -0.4388 -0.0331  1.3024
   85DOPC  C21611674   1.785   1.247   4.284 -0.0701  0.8814 -0.4069
   85DOPC  H16R11675   1.719   1.326   4.326  1.0472  2.3540 -1.3215
   85DOPC  H16S11676   1.722   1.156   4.273  0.8473  0.2293 -0.3019
   85DOPC  C21711677   1.827   1.303   4.147  0.4068 -0.0767 -0.2022
   85DOPC  H17R11678   1.898   1.388   4.145  1.3054 -0.8049 -0.2293
   85DOPC  H17S11679   1.734   1.342   4.101  0.8633 -1.0940 -2.0545
   85DOPC  C21811680   1.890   1.198   4.062  0.3273  0.0864  0.5616
   85DOPC  H18R11681   1.814   1.117   4.058  0.1021  0.1681  2.5565
   85DOPC  H18S11682   1.986   1.160   4.103  0.0138 -2.1337 -0.5779
   85DOPC  H18T11683   1.911   1.228   3.957  1.0982 -0.1362  0.6490
   85DOPC   C3311684   0.699   0.565   5.429  0.4566  0.1203 -0.2028
   85DOPC   H3X11685   0.658   0.635   5.505 -0.0177  0.6153 -0.9017
   85DOPC   H3Y11686   0.623   0.484   5.438  0.9032 -0.0521  2.9733
   85DOPC   C3411687   0.703   0.632   5.294  0.1157  0.5870 -0.2772
   85DOPC   H4X11688   0.761   0.726   5.302  0.1198  0.4629  1.6563
   85DOPC   H4Y11689   0.596   0.656   5.274  0.6565  0.9209 -3.1439
   85DOPC   C3511690   0.756   0.538   5.185  0.1503  0.4573  0.1025
   85DOPC   H5X11691   0.709   0.439   5.198  0.3557 -0.0112 -2.1859
   85DOPC   H5Y11692   0.865   0.517   5.195 -0.3315 -1.4905  1.8258
   85DOPC   C3611693   0.715   0.580   5.045 -0.5934  0.1773  0.0624
   85DOPC   H6X11694   0.604   0.578   5.031 -0.8609  0.6700  1.8736
   85DOPC   H6Y11695   0.741   0.687   5.050 -0.9188  0.2047  2.9303
   85DOPC   C3711696   0.780   0.499   4.927 -0.2302 -0.4081  0.0714
   85DOPC   H7X11697   0.891   0.503   4.938 -0.1932  0.1367 -0.4476
   85DOPC   H7Y11698   0.764   0.391   4.949  3.1457 -0.9443  0.4555
   85DOPC   C3811699   0.739   0.535   4.778  0.0098 -0.4308  0.5153
   85DOPC   H8X11700   0.630   0.516   4.769  0.0498 -0.5365  0.2541
   85DOPC   H8Y11701   0.795   0.469   4.709 -0.2162  0.3148 -0.4085
   85DOPC   C3911702   0.763   0.687   4.757  0.3092  0.6491  0.0173
   85DOPC   H9X11703   0.698   0.747   4.821  0.0329  1.0359 -0.6226
   85DOPC  C31011704   0.845   0.743   4.660 -0.0313 -0.6730  0.0615
   85DOPC  H10X11705   0.848   0.852   4.644 -1.5920 -0.4711  0.8393
   85DOPC  C31111706   0.932   0.670   4.565  0.2242 -0.7660  0.1763
   85DOPC  H11X11707   0.966   0.574   4.611 -1.4785 -0.3368  2.4939
   85DOPC  H11Y11708   1.026   0.724   4.539  0.5980 -0.7882  1.3894
   85DOPC  C31211709   0.862   0.621   4.430 -0.1895 -0.3074 -0.1414
   85DOPC  H12X11710   0.838   0.708   4.365  2.3078  0.3906 -0.2243
   85DOPC  H12Y11711   0.761   0.584   4.459 -0.7629  1.6844  0.6236
   85DOPC  C31311712   0.940   0.528   4.341 -0.4397  0.2414 -0.6147
   85DOPC  H13X11713   1.031   0.582   4.307 -1.1305  1.3920 -0.6866
   85DOPC  H13Y11714   0.960   0.435   4.398 -1.7542  0.6030  0.4637
   85DOPC  C31411715   0.863   0.483   4.216  0.4750 -0.2112 -0.0164
   85DOPC  H14X11716   0.776   0.419   4.243  0.2203  0.5177  0.9338
   85DOPC  H14Y11717   0.823   0.574   4.166 -0.8696 -0.2723  0.9010
   85DOPC  C31511718   0.956   0.419   4.115  0.2357  0.4374  0.1981
   85DOPC  H15X11719   0.985   0.321   4.160  0.0438  0.5407  0.5513
   85DOPC  H15Y11720   1.057   0.464   4.100  0.2560 -0.1000 -1.4546
   85DOPC  C31611721   0.892   0.400   3.979  0.6207 -0.7154  0.0136
   85DOPC  H16X11722   0.786   0.370   3.996  1.6083 -3.3139  2.3258
   85DOPC  H16Y11723   0.871   0.502   3.940 -1.8722 -0.4591  1.7931
   85DOPC  C31711724   0.961   0.327   3.865  0.7829  0.1782 -0.3906
   85DOPC  H17X11725   0.913   0.343   3.766  0.2388 -2.0120 -0.5294
   85DOPC  H17Y11726   1.069   0.354   3.856  1.2851 -1.5714 -0.0095
   85DOPC  C31811727   0.943   0.177   3.886  0.2633  0.1790 -0.0700
   85DOPC  H18X11728   1.021   0.117   3.834  0.2204  0.5359 -0.5480
   85DOPC  H18Y11729   0.961   0.158   3.994 -0.9816 -2.6337 -0.2666
   85DOPC  H18Z11730   0.836   0.151   3.869 -0.5566  2.2481  1.5879
   86DOPC     N11731   0.344   5.858   6.132 -1.1402  0.5725 -0.1450
   86DOPC   C1211732   0.406   5.729   6.184  0.4550 -0.0686  0.1303
   86DOPC  H12A11733   0.335   5.654   6.215  0.6645  0.0458  0.8999
   86DOPC  H12B11734   0.457   5.755   6.276 -1.9396  1.0492  1.2270
   86DOPC   C1311735   0.272   5.912   6.254  0.4214  0.2011 -0.2837
   86DOPC  H13A11736   0.333   5.934   6.341 -0.4032  3.2187 -0.3652
   86DOPC  H13B11737   0.241   6.011   6.225 -0.1447 -0.3657 -1.7132
   86DOPC  H13C11738   0.181   5.862   6.282  0.9672 -0.2498  0.7374
   86DOPC   C1411739   0.249   5.838   6.016  0.3809  0.3955 -0.0316
   86DOPC  H14A11740   0.255   5.921   5.947  2.6613 -1.8614 -2.8224
   86DOPC  H14B11741   0.289   5.758   5.955  0.6190  0.2546  0.3024
   86DOPC  H14C11742   0.158   5.805   6.063  0.6098  2.8256  2.4357
   86DOPC   C1511743   0.456   5.945   6.098 -0.5912 -0.2160  0.1814
   86DOPC  H15A11744   0.555   5.911   6.128  1.0762  2.4670 -1.7966
   86DOPC  H15B11745   0.425   6.047   6.115 -1.0865 -0.0266 -1.6744
   86DOPC  H15C11746   0.458   5.949   5.990  0.5287  0.5746  0.2038
   86DOPC   C1111747   0.513   5.649   6.096 -0.4095  0.2336 -0.7206
   86DOPC  H11A11748   0.605   5.710   6.104 -1.2831  1.5472 -0.4435
   86DOPC  H11B11749   0.537   5.557   6.153  0.4394  0.9784  0.1512
   86DOPC     P11750   0.411   5.505   5.910  0.4456 -0.0663  0.1829
   86DOPC   O1311751   0.271   5.502   5.963 -0.2754 -0.1634 -0.4027
   86DOPC   O1411752   0.507   5.398   5.947 -0.1930 -0.5861 -0.7375
   86DOPC   O1211753   0.477   5.633   5.959  0.1648  0.0824  0.1969
   86DOPC   O1111754   0.424   5.526   5.756 -0.2314  0.4608  0.3066
   86DOPC    C111755   0.362   5.641   5.694  0.8745 -0.0049  0.3513
   86DOPC    HA11756   0.349   5.726   5.765 -1.2695 -0.8824  1.0917
   86DOPC    HB11757   0.258   5.623   5.658  0.4332  2.4584  0.1483
   86DOPC    C211758   0.428   5.690   5.568 -0.3531  0.0683 -0.4412
   86DOPC    HS11759   0.364   5.769   5.525 -0.8289  0.7308  1.3967
   86DOPC   O2111760   0.458   5.573   5.490  0.2256  0.2992  0.6532
   86DOPC   C2111761   0.461   5.596   5.357 -0.3725  0.7174  0.0004
   86DOPC   O2211762   0.425   5.700   5.305 -0.5157 -0.4769  0.4180
   86DOPC   C2211763   0.524   5.477   5.287 -0.1344 -0.2962 -0.4103
   86DOPC   H2R11764   0.445   5.399   5.274  0.0887 -0.7375  0.7672
   86DOPC   H2S11765   0.611   5.437   5.344 -0.3608  0.2051  0.2877
   86DOPC    C311766   0.563   5.760   5.616 -0.6954  1.1190 -0.1154
   86DOPC    HX11767   0.622   5.670   5.643  1.8821  1.4162 -4.0239
   86DOPC    HY11768   0.560   5.829   5.703  1.0609  1.8705 -0.5935
   86DOPC   O3111769   0.624   5.815   5.498 -0.3668  0.0613 -0.0991
   86DOPC   C3111770   0.582   5.936   5.466 -0.8204  0.0397 -0.9229
   86DOPC   O3211771   0.519   6.011   5.539  0.0547 -0.3866 -0.1855
   86DOPC   C3211772   0.626   5.972   5.319 -0.0696 -0.2967  0.3936
   86DOPC   H2X11773   0.714   6.039   5.331 -0.9307  1.0285 -0.4368
   86DOPC   H2Y11774   0.651   5.881   5.261 -0.4324  0.1674 -0.5181
   86DOPC   C2311775   0.584   5.535   5.157  0.0495 -0.0440 -0.3714
   86DOPC   H3R11776   0.651   5.619   5.186  0.6040 -1.2490  2.1053
   86DOPC   H3S11777   0.499   5.578   5.099 -1.2431  2.8117  3.2736
   86DOPC   C2411778   0.659   5.446   5.063 -0.9594 -0.8320 -0.6304
   86DOPC   H4R11779   0.705   5.503   4.980 -0.2862 -0.2049  0.1587
   86DOPC   H4S11780   0.595   5.365   5.022 -3.1596  1.2222 -1.4717
   86DOPC   C2511781   0.771   5.371   5.133 -0.2150 -0.0842  0.0466
   86DOPC   H5R11782   0.722   5.303   5.206 -1.8855 -1.0124 -1.8547
   86DOPC   H5S11783   0.843   5.442   5.181 -0.7467  1.6625 -1.5882
   86DOPC   C2611784   0.862   5.298   5.027 -0.8380  0.5847 -0.7232
   86DOPC   H6R11785   0.953   5.356   5.001  0.2699 -0.4887  0.6334
   86DOPC   H6S11786   0.815   5.260   4.934 -0.8838 -0.6244 -0.2209
   86DOPC   C2711787   0.919   5.173   5.092  0.4006 -0.3572 -0.3494
   86DOPC   H7R11788   0.837   5.102   5.114 -0.5950  0.3921 -1.4748
   86DOPC   H7S11789   0.961   5.197   5.192  1.5737 -3.2036 -0.0715
   86DOPC   C2811790   1.025   5.104   4.999 -0.1262  0.9019 -0.0483
   86DOPC   H8R11791   1.074   5.020   5.052 -2.0915 -0.4712 -0.2845
   86DOPC   H8S11792   1.110   5.170   4.973 -0.2513  0.5241 -1.4946
   86DOPC   C2911793   0.954   5.038   4.886  0.3226 -0.0715 -0.7915
   86DOPC   H9R11794   0.893   4.958   4.929 -1.6300  1.9205  0.3404
   86DOPC  C21011795   0.974   5.071   4.756 -0.1947  0.3371 -0.1830
   86DOPC  H10R11796   0.902   5.025   4.686 -0.4359  0.6386 -0.1317
   86DOPC  C21111797   1.062   5.185   4.702 -0.2403 -1.0652  0.1067
   86DOPC  H11R11798   1.037   5.269   4.770  0.7704 -1.8830  1.5343
   86DOPC  H11S11799   1.026   5.203   4.598 -0.7425 -1.6059  0.1796
   86DOPC  C21211800   1.211   5.166   4.710 -0.1531 -0.1649  0.3883
   86DOPC  H12R11801   1.234   5.065   4.749 -1.5870 -0.4907  0.4113
   86DOPC  H12S11802   1.247   5.235   4.788  2.2216 -0.0694 -0.6847
   86DOPC  C21311803   1.280   5.210   4.579  0.1469  0.0331  0.1045
   86DOPC  H13R11804   1.224   5.167   4.493 -0.2822 -0.0863  0.4420
   86DOPC  H13S11805   1.380   5.167   4.597 -0.1563 -1.3303 -1.2596
   86DOPC  C21411806   1.278   5.355   4.553 -0.2671 -0.2435  0.4958
   86DOPC  H14R11807   1.335   5.416   4.626 -1.0440 -0.3275  1.1880
   86DOPC  H14S11808   1.172   5.387   4.553  0.2554  1.5856  1.4669
   86DOPC  C21511809   1.333   5.379   4.411  0.2560 -0.1985 -0.3664
   86DOPC  H15R11810   1.304   5.483   4.386 -1.9787 -0.8245 -0.5885
   86DOPC  H15S11811   1.292   5.321   4.326  1.5490 -0.2140 -1.0033
   86DOPC  C21611812   1.481   5.352   4.405  0.5778  0.2112  0.1554
   86DOPC  H16R11813   1.496   5.243   4.424 -0.0771  0.4217  2.1492
   86DOPC  H16S11814   1.525   5.400   4.495 -2.0093  1.0271  1.0600
   86DOPC  C21711815   1.540   5.404   4.276 -0.7006 -0.1351  0.4544
   86DOPC  H17R11816   1.650   5.388   4.285 -0.6982  0.0833  0.8225
   86DOPC  H17S11817   1.518   5.513   4.275  0.1084  0.0318 -0.4280
   86DOPC  C21811818   1.485   5.349   4.148  0.0474 -0.3435 -0.3052
   86DOPC  H18R11819   1.544   5.385   4.061  1.2138  0.2060  0.6861
   86DOPC  H18S11820   1.375   5.358   4.134 -0.2308  2.6799  2.5388
   86DOPC  H18T11821   1.498   5.239   4.144 -1.8886 -0.7455  2.0731
   86DOPC   C3311822   0.508   6.047   5.242 -0.2716 -0.6473 -0.4144
   86DOPC   H3X11823   0.465   6.124   5.310  0.0044  2.8607 -3.8375
   86DOPC   H3Y11824   0.431   5.977   5.203  0.9422 -1.4879 -1.4218
   86DOPC   C3411825   0.566   6.117   5.118  0.1952  0.3762  0.0637
   86DOPC   H4X11826   0.611   6.043   5.049  1.1986 -0.7410  1.8268
   86DOPC   H4Y11827   0.650   6.179   5.156  1.2635 -1.1423  0.2988
   86DOPC   C3511828   0.456   6.198   5.059 -0.0370  0.1009  0.6723
   86DOPC   H5X11829   0.436   6.276   5.135 -2.0255  0.2211  0.0799
   86DOPC   H5Y11830   0.364   6.137   5.046 -1.1213  1.9292 -0.9710
   86DOPC   C3611831   0.487   6.267   4.922 -0.5579 -0.0691  0.3245
   86DOPC   H6X11832   0.575   6.333   4.934  0.1644 -0.8397 -0.5680
   86DOPC   H6Y11833   0.514   6.185   4.852  0.2180 -1.0065  1.6734
   86DOPC   C3711834   0.369   6.353   4.878  0.5230 -0.5236 -0.2642
   86DOPC   H7X11835   0.282   6.287   4.853 -1.1942  0.7983  1.8778
   86DOPC   H7Y11836   0.329   6.411   4.964  0.2141 -2.3849  0.9063
   86DOPC   C3811837   0.395   6.437   4.752 -0.1984  0.4159  0.4794
   86DOPC   H8X11838   0.468   6.514   4.785  0.5324 -0.0211 -0.0876
   86DOPC   H8Y11839   0.301   6.492   4.730 -0.5173  1.3483  3.5673
   86DOPC   C3911840   0.457   6.379   4.631 -0.2654 -0.4785  0.8486
   86DOPC   H9X11841   0.546   6.316   4.646  1.5669  1.5811 -0.5639
   86DOPC  C31011842   0.416   6.387   4.502  0.2009 -0.6219 -0.2060
   86DOPC  H10X11843   0.482   6.343   4.426 -2.0512 -1.1971 -1.9358
   86DOPC  C31111844   0.301   6.483   4.454  0.3236  0.8872  0.0660
   86DOPC  H11X11845   0.344   6.584   4.440  1.3681  0.2624 -1.4839
   86DOPC  H11Y11846   0.213   6.497   4.520  2.0915 -0.1182  2.7938
   86DOPC  C31211847   0.251   6.437   4.311 -0.3131  0.0516 -0.4592
   86DOPC  H12X11848   0.188   6.517   4.267 -1.1465  0.2976  1.1209
   86DOPC  H12Y11849   0.177   6.357   4.332 -0.5678  0.9322  2.4282
   86DOPC  C31311850   0.361   6.394   4.211  0.5647 -0.3598  0.0934
   86DOPC  H13X11851   0.439   6.472   4.219 -0.6622  0.7284  2.0650
   86DOPC  H13Y11852   0.393   6.290   4.236 -2.5503 -0.9556  2.1046
   86DOPC  C31411853   0.322   6.390   4.059  0.0260  0.4794  0.3771
   86DOPC  H14X11854   0.412   6.347   4.009  1.5333  1.7263  1.8753
   86DOPC  H14Y11855   0.238   6.319   4.050  1.4631 -1.1956 -0.4087
   86DOPC  C31511856   0.287   6.517   3.982  0.4930  0.0946 -0.3485
   86DOPC  H15X11857   0.386   6.567   3.980  1.6991 -2.1306 -0.0242
   86DOPC  H15Y11858   0.221   6.585   4.039  0.8040 -1.6058  2.2067
   86DOPC  C31611859   0.225   6.518   3.845 -0.1639  0.6142  0.6164
   86DOPC  H16X11860   0.296   6.496   3.762  1.1144  2.2452  1.2271
   86DOPC  H16Y11861   0.142   6.444   3.853  0.6037 -0.3983 -0.4371
   86DOPC  C31711862   0.169   6.657   3.814 -0.4424  0.1106  0.5927
   86DOPC  H17X11863   0.085   6.687   3.881 -0.5484 -1.0385  1.0135
   86DOPC  H17Y11864   0.248   6.733   3.828 -0.8082  0.4420  0.9053
   86DOPC  C31811865   0.140   6.672   3.667 -0.4416  0.5079 -0.4285
   86DOPC  H18X11866   0.231   6.636   3.614 -0.2203 -1.3779  1.1134
   86DOPC  H18Y11867   0.064   6.601   3.628 -1.2314  0.1391  1.6486
   86DOPC  H18Z11868   0.123   6.776   3.630 -1.5061  0.5950  0.2419
   87DOPC     N11869   6.211   5.720   6.277  0.0093 -0.6469  0.1574
   87DOPC   C1211870   6.343   5.707   6.209 -0.7421  0.1809  0.1736
   87DOPC  H12A11871   6.389   5.615   6.240 -0.5312  0.4400  0.6534
   87DOPC  H12B11872   6.409   5.788   6.238 -1.2573  0.4438  0.6322
   87DOPC   C1311873   6.234   5.730   6.422  0.1600  0.0477 -0.4253
   87DOPC  H13A11874   6.328   5.777   6.448 -0.0769  0.0068  0.5701
   87DOPC  H13B11875   6.154   5.792   6.461  0.1608 -0.6162  0.6832
   87DOPC  H13C11876   6.234   5.631   6.465 -1.0577  0.4783  0.6352
   87DOPC   C1411877   6.132   5.596   6.251  0.4464 -0.1706  0.4980
   87DOPC  H14A11878   6.118   5.587   6.144  1.0833 -1.1273  0.4810
   87DOPC  H14B11879   6.195   5.515   6.284  1.1386 -0.0096 -0.3961
   87DOPC  H14C11880   6.039   5.605   6.305  1.8935  0.2254  3.0917
   87DOPC   C1511881   6.143   5.847   6.235 -0.0861  0.2619  0.2174
   87DOPC  H15A11882   6.212   5.928   6.253  2.1418 -1.8626  1.9085
   87DOPC  H15B11883   6.047   5.861   6.283  0.1648 -0.9124  1.0874
   87DOPC  H15C11884   6.127   5.838   6.129 -0.8561  1.7859  0.1675
   87DOPC   C1111885   6.328   5.699   6.056 -1.1636 -0.0189  0.3040
   87DOPC  H11A11886   6.261   5.616   6.026 -0.0041 -0.9220  0.1329
   87DOPC  H11B11887   6.287   5.796   6.020  0.6189  0.8918  0.6129
   87DOPC     P11888   6.524   5.539   5.987 -0.0324  0.2050 -0.1313
   87DOPC   O1311889   6.428   5.430   6.017 -0.5543 -0.1892 -0.3694
   87DOPC   O1411890   6.645   5.531   6.065 -0.0477 -0.4872  0.1547
   87DOPC   O1211891   6.458   5.682   6.005 -0.3093  0.0944  0.3097
   87DOPC   O1111892   6.561   5.535   5.836 -0.4320  0.0505  0.7960
   87DOPC    C111893   6.516   5.635   5.747 -0.2865 -0.2372 -0.5572
   87DOPC    HA11894   6.575   5.728   5.762  0.1916 -0.2961 -1.8892
   87DOPC    HB11895   6.409   5.659   5.758 -0.4078 -1.0531  0.1258
   87DOPC    C211896   6.537   5.593   5.599  0.9936 -0.1220  0.6268
   87DOPC    HS11897   6.644   5.589   5.569  0.6626  0.3321 -0.6836
   87DOPC   O2111898   6.465   5.690   5.517 -0.0662 -0.1262 -0.9673
   87DOPC   C2111899   6.529   5.741   5.417  0.3353 -0.8768  0.9910
   87DOPC   O2211900   6.644   5.713   5.385  0.0775 -0.6180 -0.2303
   87DOPC   C2211901   6.425   5.821   5.334  0.1609 -0.3764 -0.7285
   87DOPC   H2R11902   6.450   5.928   5.320  0.9473 -0.4664 -0.1144
   87DOPC   H2S11903   6.323   5.818   5.378 -1.2417 -0.8463 -3.7905
   87DOPC    C311904   6.488   5.449   5.556  0.2393  0.0427 -0.2934
   87DOPC    HX11905   6.382   5.436   5.585  1.0005 -1.9343  1.9017
   87DOPC    HY11906   6.538   5.372   5.619 -0.7621 -0.2164  0.2085
   87DOPC   O3111907   6.499   5.415   5.413  0.1917 -0.3872  0.0535
   87DOPC   C3111908   6.619   5.373   5.372 -0.2618 -0.0132 -0.0189
   87DOPC   O3211909   6.718   5.372   5.445  0.5781  0.3952 -0.3212
   87DOPC   C3211910   6.611   5.323   5.228  0.5851  0.1510 -0.4682
   87DOPC   H2X11911   6.664   5.226   5.219  0.8893  0.1614  1.0588
   87DOPC   H2Y11912   6.504   5.308   5.202  0.7747  1.3130 -2.0807
   87DOPC   C2311913   6.415   5.761   5.193  0.2526 -0.1100 -0.1945
   87DOPC   H3R11914   6.518   5.753   5.152  0.5257 -0.9874  0.6241
   87DOPC   H3S11915   6.357   5.830   5.128 -1.2462 -2.5416 -1.6105
   87DOPC   C2411916   6.337   5.630   5.184 -0.5870 -0.8406  0.2826
   87DOPC   H4R11917   6.234   5.630   5.228 -0.4041  1.3206  0.8377
   87DOPC   H4S11918   6.395   5.555   5.241 -0.0971  0.0462  0.9837
   87DOPC   C2511919   6.327   5.589   5.036  0.4409 -0.0071 -0.0382
   87DOPC   H5R11920   6.300   5.482   5.030  1.0485 -0.3357  2.2249
   87DOPC   H5S11921   6.426   5.597   4.984 -0.8308 -0.6059 -2.7437
   87DOPC   C2611922   6.230   5.674   4.952 -0.3649  0.9549 -0.7337
   87DOPC   H6R11923   6.265   5.780   4.954 -0.5586  1.0913 -2.4038
   87DOPC   H6S11924   6.129   5.677   4.996  0.4269 -1.1773  1.4016
   87DOPC   C2711925   6.215   5.625   4.806  0.5632  0.0061 -0.5788
   87DOPC   H7R11926   6.115   5.654   4.766 -0.1626 -0.9312  0.4825
   87DOPC   H7S11927   6.203   5.516   4.820 -1.7005  0.2911  0.1945
   87DOPC   C2811928   6.327   5.660   4.710  0.1579  0.0564 -0.6817
   87DOPC   H8R11929   6.422   5.612   4.743 -2.6197 -4.0860  2.1966
   87DOPC   H8S11930   6.339   5.771   4.708  0.7698 -0.0139 -1.1994
   87DOPC   C2911931   6.285   5.611   4.571 -0.2319  0.3055  0.1458
   87DOPC   H9R11932   6.265   5.503   4.571 -2.1011  0.5696  2.2776
   87DOPC  C21011933   6.258   5.688   4.467  0.8023  0.1054  0.1402
   87DOPC  H10R11934   6.245   5.642   4.368 -1.5492  1.1482 -0.1048
   87DOPC  C21111935   6.280   5.835   4.464  0.2189 -0.5621 -0.8255
   87DOPC  H11R11936   6.330   5.869   4.371  2.0554 -0.2748  0.2109
   87DOPC  H11S11937   6.357   5.869   4.536  0.4787  0.5285 -1.5790
   87DOPC  C21211938   6.145   5.912   4.480  0.1116 -0.3321 -0.7146
   87DOPC  H12R11939   6.169   6.001   4.542 -0.1177  0.1654 -1.3165
   87DOPC  H12S11940   6.075   5.849   4.539  1.5874 -1.9968 -0.6597
   87DOPC  C21311941   6.089   5.965   4.348 -0.3289  0.1290 -0.6197
   87DOPC  H13R11942   6.170   6.008   4.287 -1.4854 -0.4215 -2.6422
   87DOPC  H13S11943   6.018   6.048   4.369 -0.5495 -0.4045  0.8594
   87DOPC  C21411944   6.014   5.860   4.258 -0.1971  0.1345  0.3982
   87DOPC  H14R11945   5.950   5.803   4.328 -0.1722  0.9829  1.1360
   87DOPC  H14S11946   6.093   5.795   4.216  0.9747  1.9418 -0.3482
   87DOPC  C21511947   5.931   5.911   4.141 -0.3934 -0.0536 -0.1825
   87DOPC  H15R11948   5.995   5.984   4.087 -0.4189 -0.9285 -1.4498
   87DOPC  H15S11949   5.840   5.968   4.172  0.9920  1.8883  0.5055
   87DOPC  C21611950   5.882   5.797   4.044  0.0779 -0.1267 -0.6386
   87DOPC  H16R11951   5.880   5.706   4.108  1.0939 -0.2512 -0.7695
   87DOPC  H16S11952   5.961   5.785   3.966  1.0836  1.9368 -0.0066
   87DOPC  C21711953   5.745   5.824   3.971 -0.3536  0.2470  0.4641
   87DOPC  H17R11954   5.747   5.916   3.909 -2.7715 -0.1606 -0.3012
   87DOPC  H17S11955   5.679   5.848   4.057 -1.3059  0.4796 -0.3194
   87DOPC  C21811956   5.689   5.711   3.885 -0.4259  0.0366 -0.5270
   87DOPC  H18R11957   5.721   5.615   3.931 -1.8246  0.4879  1.5424
   87DOPC  H18S11958   5.729   5.730   3.783 -2.4676  1.1772 -1.1719
   87DOPC  H18T11959   5.579   5.706   3.873 -0.4471  0.7444 -0.7038
   87DOPC   C3311960   6.681   5.427   5.133 -0.3841 -0.2764 -0.2529
   87DOPC   H3X11961   6.785   5.444   5.168 -0.0881  2.6068 -2.2023
   87DOPC   H3Y11962   6.624   5.522   5.139 -0.3864 -0.1313 -2.1403
   87DOPC   C3411963   6.665   5.381   4.992 -0.1913 -0.3072 -0.1648
   87DOPC   H4X11964   6.556   5.364   4.980 -0.6803  1.0078  1.9932
   87DOPC   H4Y11965   6.708   5.281   4.970 -2.4387 -1.2978 -0.2560
   87DOPC   C3511966   6.731   5.475   4.896 -0.6919 -0.4892 -0.2298
   87DOPC   H5X11967   6.839   5.482   4.918  0.0970 -0.5812 -3.6126
   87DOPC   H5Y11968   6.691   5.575   4.924 -0.8962  0.2674 -2.9613
   87DOPC   C3611969   6.683   5.456   4.756 -0.1842 -0.1711  0.2598
   87DOPC   H6X11970   6.705   5.348   4.736 -0.8416 -0.4252  0.8851
   87DOPC   H6Y11971   6.574   5.462   4.739 -0.0016 -1.0880 -1.6294
   87DOPC   C3711972   6.755   5.536   4.647  0.0430  0.0809 -0.0723
   87DOPC   H7X11973   6.859   5.553   4.683 -0.8489 -0.6773  3.2114
   87DOPC   H7Y11974   6.745   5.475   4.555 -3.2047 -0.1623  0.3068
   87DOPC   C3811975   6.691   5.663   4.616 -0.1943 -0.2667  0.1562
   87DOPC   H8X11976   6.633   5.692   4.706  2.0042  0.3141  1.4523
   87DOPC   H8Y11977   6.604   5.662   4.546 -0.4485 -1.9525  0.4626
   87DOPC   C3911978   6.785   5.781   4.589  0.5555  0.1011  0.0617
   87DOPC   H9X11979   6.862   5.792   4.666 -0.1404 -1.1024  0.9763
   87DOPC  C31011980   6.789   5.866   4.486  0.2381 -0.5323 -0.1679
   87DOPC  H10X11981   6.871   5.939   4.480 -0.0490 -0.1982 -0.1225
   87DOPC  C31111982   6.699   5.870   4.372  0.3061  0.1626  0.3717
   87DOPC  H11X11983   6.678   5.978   4.355 -0.3073  0.7000  3.8537
   87DOPC  H11Y11984   6.605   5.814   4.392  0.4166 -0.7377 -1.4353
   87DOPC  C31211985   6.757   5.792   4.252  0.1975  0.6345 -0.6865
   87DOPC  H12X11986   6.860   5.819   4.222  1.6555 -1.7679  1.6386
   87DOPC  H12Y11987   6.699   5.803   4.158 -0.7339 -0.5507 -0.2753
   87DOPC  C31311988   6.750   5.635   4.272  0.0507 -0.2032  0.2207
   87DOPC  H13X11989   6.839   5.607   4.332  1.1147  0.4948 -0.9761
   87DOPC  H13Y11990   6.658   5.612   4.330  0.1785  1.9264  1.3800
   87DOPC  C31411991   6.747   5.565   4.136  0.1913  0.6116 -0.3304
   87DOPC  H14X11992   6.663   5.615   4.082  0.1093  0.9915  0.1416
   87DOPC  H14Y11993   6.843   5.586   4.085  0.5365  2.1042  0.8665
   87DOPC  C31511994   6.708   5.415   4.150 -0.3972 -0.3460  0.6141
   87DOPC  H15X11995   6.783   5.349   4.198  1.2125  0.0026 -1.2995
   87DOPC  H15Y11996   6.714   5.403   4.040 -1.0206  1.1224  0.4024
   87DOPC  C31611997   6.566   5.385   4.200  0.7509  0.0393  0.3910
   87DOPC  H16X11998   6.502   5.475   4.195 -0.7392 -1.0428 -1.3394
   87DOPC  H16Y11999   6.520   5.309   4.132 -0.0408  0.3304  0.5869
   87DOPC  C31712000   6.565   5.331   4.345 -0.6089 -0.5219 -0.5806
   87DOPC  H17X12001   6.651   5.261   4.353  0.1894  0.4620 -0.3020
   87DOPC  H17Y12002   6.587   5.413   4.416 -0.4311 -2.5962  1.9317
   87DOPC  C31812003   6.431   5.269   4.384  0.0225 -0.0986 -0.2632
   87DOPC  H18X12004   6.402   5.190   4.312  0.5397  0.3830 -1.0179
   87DOPC  H18Y12005   6.439   5.233   4.488 -2.1339 -0.4033 -0.1652
   87DOPC  H18Z12006   6.356   5.351   4.384 -0.6842 -0.7422 -0.0731
   88DOPC     N12007   8.244   3.769   6.415  0.4368  0.2048  0.5520
   88DOPC   C1212008   8.243   3.665   6.301  0.0565  0.1778  0.6413
   88DOPC  H12A12009   8.305   3.584   6.336  0.4291  0.2869  0.2382
   88DOPC  H12B12010   8.276   3.709   6.208  1.2828  0.9530  1.4138
   88DOPC   C1312011   8.197   3.690   6.539 -0.2573  0.2317 -0.2016
   88DOPC  H13A12012   8.263   3.608   6.562 -0.0642  0.7604  1.2108
   88DOPC  H13B12013   8.201   3.758   6.624  0.7269  1.7445 -1.3960
   88DOPC  H13C12014   8.094   3.664   6.520  0.0442 -2.1505  1.0224
   88DOPC   C1412015   8.154   3.884   6.383  0.0982 -0.0297  0.3973
   88DOPC  H14A12016   8.186   3.945   6.300 -0.3539  0.0982  0.3169
   88DOPC  H14B12017   8.059   3.840   6.357 -0.3040 -0.1523  1.9481
   88DOPC  H14C12018   8.134   3.948   6.469  0.2083  0.3425  0.1491
   88DOPC   C1512019   8.382   3.819   6.435 -0.7083 -0.5594 -0.4785
   88DOPC  H15A12020   8.421   3.857   6.342 -1.4960 -0.1145 -0.6291
   88DOPC  H15B12021   8.447   3.743   6.477 -2.1958 -1.6888 -0.1042
   88DOPC  H15C12022   8.378   3.902   6.503 -2.1843 -1.2708  0.3538
   88DOPC   C1112023   8.108   3.588   6.277 -1.5354  0.2469  0.4881
   88DOPC  H11A12024   8.131   3.504   6.209  1.8044  0.6042  1.0042
   88DOPC  H11B12025   8.074   3.543   6.372  0.5498 -2.0432  0.2476
   88DOPC     P12026   7.974   3.699   6.075  0.1256  0.5662  0.0435
   88DOPC   O1312027   7.887   3.816   6.058 -0.6014 -0.2082 -0.2561
   88DOPC   O1412028   7.931   3.563   6.024 -0.1412 -1.0797 -0.0268
   88DOPC   O1212029   8.003   3.675   6.228 -0.0580  0.4610  0.2204
   88DOPC   O1112030   8.114   3.733   6.015  0.8335  0.3395  0.1263
   88DOPC    C112031   8.157   3.867   6.002  0.3181 -0.0285 -0.7084
   88DOPC    HA12032   8.268   3.865   5.996  0.3153  0.8780 -1.2165
   88DOPC    HB12033   8.140   3.925   6.095  1.2819 -2.6298  1.2339
   88DOPC    C212034   8.096   3.942   5.880  0.3607 -0.5994  0.4025
   88DOPC    HS12035   7.988   3.960   5.902  0.3592 -1.0154  0.7412
   88DOPC   O2112036   8.120   3.868   5.758  0.0355  0.4045  0.1812
   88DOPC   C2112037   8.013   3.820   5.697 -0.1495 -0.1720 -0.0909
   88DOPC   O2212038   7.901   3.845   5.726  0.5294 -0.2037 -0.3595
   88DOPC   C2212039   8.061   3.730   5.587 -0.7283  0.4025 -0.2452
   88DOPC   H2R12040   8.134   3.655   5.625 -0.9204 -0.2905 -1.1846
   88DOPC   H2S12041   8.114   3.785   5.506  0.3093  0.8180  0.6999
   88DOPC    C312042   8.176   4.081   5.867  0.0615 -0.1415  1.0420
   88DOPC    HX12043   8.163   4.137   5.962 -0.5939 -1.2232  1.6102
   88DOPC    HY12044   8.131   4.136   5.781  1.6774 -0.8074 -0.2865
   88DOPC   O3112045   8.320   4.071   5.846  0.2373  0.3135  0.4126
   88DOPC   C3112046   8.369   4.084   5.727 -1.0078  0.2817  0.4078
   88DOPC   O3212047   8.304   4.123   5.631  0.1650  0.3730  0.0496
   88DOPC   C3212048   8.518   4.051   5.728 -0.2990  0.5539 -0.0814
   88DOPC   H2X12049   8.569   4.093   5.639 -0.5990 -1.0377 -1.0484
   88DOPC   H2Y12050   8.569   4.085   5.820  0.8566  1.0941 -0.9086
   88DOPC   C2312051   7.944   3.663   5.509 -0.0164 -0.3276  0.5799
   88DOPC   H3R12052   7.889   3.747   5.460  1.4469  0.7171  0.6585
   88DOPC   H3S12053   7.872   3.603   5.569  0.7832 -0.9657  0.9241
   88DOPC   C2412054   7.997   3.594   5.375  0.5681 -0.3321 -0.0886
   88DOPC   H4R12055   8.083   3.530   5.404  0.7314 -0.2362 -0.3679
   88DOPC   H4S12056   8.037   3.668   5.303 -1.2236  1.3671  0.5654
   88DOPC   C2512057   7.878   3.515   5.315  0.0877 -0.3998  0.0129
   88DOPC   H5R12058   7.783   3.572   5.321  0.0543 -0.2666 -1.4989
   88DOPC   H5S12059   7.880   3.424   5.379 -0.4443  0.2126  0.9378
   88DOPC   C2612060   7.895   3.466   5.166 -0.3131  0.2632 -0.0626
   88DOPC   H6R12061   7.984   3.399   5.168 -1.2755 -1.1002  3.4176
   88DOPC   H6S12062   7.918   3.553   5.101 -2.2349  0.8683  0.0013
   88DOPC   C2712063   7.763   3.414   5.111 -0.3139  0.0846  0.4296
   88DOPC   H7R12064   7.677   3.478   5.139 -0.3188 -0.3632  1.4685
   88DOPC   H7S12065   7.737   3.320   5.165 -0.5566 -0.8110 -1.1780
   88DOPC   C2812066   7.767   3.376   4.966  0.5029  0.8406  0.0932
   88DOPC   H8R12067   7.784   3.464   4.899  3.3455 -0.7893 -1.5103
   88DOPC   H8S12068   7.666   3.340   4.936 -0.6236  3.3089  0.6462
   88DOPC   C2912069   7.867   3.270   4.939 -0.6279  0.2986 -0.0784
   88DOPC   H9R12070   7.912   3.220   5.025  0.6518  0.3572 -0.6930
   88DOPC  C21012071   7.893   3.215   4.818 -0.1249 -0.7426  0.7130
   88DOPC  H10R12072   7.958   3.127   4.808  1.2889  0.4039 -0.7116
   88DOPC  C21112073   7.841   3.266   4.686 -0.4574 -0.0840  0.3731
   88DOPC  H11R12074   7.791   3.363   4.705 -1.2395 -0.2486 -0.7580
   88DOPC  H11S12075   7.765   3.200   4.639  1.2146 -0.7746 -1.5011
   88DOPC  C21212076   7.953   3.312   4.589 -0.3171  0.1414  0.0473
   88DOPC  H12R12077   8.029   3.358   4.655  0.8859  0.7369 -1.6933
   88DOPC  H12S12078   7.899   3.397   4.542 -2.1053  0.7981  3.0161
   88DOPC  C21312079   8.002   3.208   4.496 -0.4542 -0.1842  0.5386
   88DOPC  H13R12080   7.987   3.254   4.396  1.6164 -0.4795  0.0454
   88DOPC  H13S12081   7.934   3.120   4.494  1.4414 -1.7030  0.0077
   88DOPC  C21412082   8.153   3.160   4.521  1.2775 -0.3177 -0.4543
   88DOPC  H14R12083   8.150   3.082   4.600  0.3347  0.7462  0.6034
   88DOPC  H14S12084   8.215   3.250   4.544 -0.0581  1.0926 -2.0399
   88DOPC  C21512085   8.211   3.088   4.399  0.2616  0.6119 -0.2427
   88DOPC  H15R12086   8.242   3.153   4.315  2.1018 -0.3993 -0.3993
   88DOPC  H15S12087   8.136   3.019   4.354  1.0874  0.5386 -1.5439
   88DOPC  C21612088   8.345   3.008   4.435  0.1086 -0.0551 -0.1653
   88DOPC  H16R12089   8.324   2.956   4.531 -0.2155  0.5098  0.0750
   88DOPC  H16S12090   8.419   3.090   4.451  3.0564 -2.0094 -2.5884
   88DOPC  C21712091   8.382   2.911   4.326 -0.0599 -0.4861 -0.4872
   88DOPC  H17R12092   8.386   2.977   4.236  1.5057 -1.3947 -1.1158
   88DOPC  H17S12093   8.304   2.836   4.302 -1.8716  1.8259 -2.4611
   88DOPC  C21812094   8.518   2.841   4.342  0.1779 -0.7482  0.4709
   88DOPC  H18R12095   8.541   2.778   4.430  0.6559 -2.6026 -0.9036
   88DOPC  H18S12096   8.601   2.914   4.338  1.6183 -2.3623 -2.2016
   88DOPC  H18T12097   8.532   2.785   4.247  0.7944 -1.2587  0.8631
   88DOPC   C3312098   8.532   3.902   5.698 -0.3307  0.1219 -0.1789
   88DOPC   H3X12099   8.464   3.838   5.758  0.3323 -1.1994 -0.7813
   88DOPC   H3Y12100   8.630   3.875   5.744 -0.9737 -0.1321  1.0881
   88DOPC   C3412101   8.520   3.847   5.555  0.0842 -0.4318 -0.6397
   88DOPC   H4X12102   8.606   3.883   5.494 -0.5441  1.9541 -0.2362
   88DOPC   H4Y12103   8.429   3.899   5.519  0.2817  1.8028  1.7595
   88DOPC   C3512104   8.514   3.697   5.531  0.1802 -0.1946  0.1296
   88DOPC   H5X12105   8.418   3.649   5.561 -0.7236  0.2699 -1.8653
   88DOPC   H5Y12106   8.590   3.639   5.589 -0.2540 -1.8488 -0.8940
   88DOPC   C3612107   8.532   3.661   5.379 -0.4501  0.8057  0.1187
   88DOPC   H6X12108   8.630   3.700   5.343  1.2034 -3.5171 -0.6418
   88DOPC   H6Y12109   8.537   3.550   5.383 -1.9152  0.7262  0.0152
   88DOPC   C3712110   8.414   3.705   5.299 -0.0822  0.2730 -0.5484
   88DOPC   H7X12111   8.320   3.689   5.356  0.6772  1.8408  1.2995
   88DOPC   H7Y12112   8.427   3.814   5.279 -2.6505  0.2979 -2.5637
   88DOPC   C3812113   8.407   3.624   5.170 -0.5119  0.4501 -0.3499
   88DOPC   H8X12114   8.511   3.610   5.133 -0.2029  2.0420 -0.1523
   88DOPC   H8Y12115   8.339   3.678   5.101 -0.5071 -0.3981 -1.0282
   88DOPC   C3912116   8.366   3.483   5.199  0.4274 -0.3167 -0.5290
   88DOPC   H9X12117   8.366   3.454   5.306  1.3733  2.8777  0.4533
   88DOPC  C31012118   8.341   3.390   5.110 -0.0111  0.0177 -0.4062
   88DOPC  H10X12119   8.345   3.288   5.149 -0.7074  0.6949  1.5331
   88DOPC  C31112120   8.344   3.419   4.966 -0.1279 -0.0300 -0.3365
   88DOPC  H11X12121   8.447   3.445   4.934  0.3211 -0.4977  0.6680
   88DOPC  H11Y12122   8.277   3.505   4.945 -1.6579 -0.7286  1.3763
   88DOPC  C31212123   8.283   3.307   4.874  0.2740  0.2139 -0.3095
   88DOPC  H12X12124   8.313   3.339   4.772 -1.1548  0.2857 -0.7209
   88DOPC  H12Y12125   8.173   3.314   4.862  0.2960 -0.2574 -0.8424
   88DOPC  C31312126   8.327   3.160   4.892 -0.5004 -0.3182 -0.6902
   88DOPC  H13X12127   8.289   3.122   4.990  1.0989  0.4567  0.2805
   88DOPC  H13Y12128   8.274   3.096   4.819 -1.0828 -0.1710 -0.4095
   88DOPC  C31412129   8.476   3.150   4.888 -0.1079  0.0137  0.0423
   88DOPC  H14X12130   8.508   3.207   4.798 -0.3356 -0.0368 -0.0735
   88DOPC  H14Y12131   8.509   3.202   4.980 -1.3033 -2.1523  1.8064
   88DOPC  C31512132   8.536   3.014   4.883 -0.7695  0.2331  0.2592
   88DOPC  H15X12133   8.495   2.952   4.966  0.1424 -0.0859  0.4874
   88DOPC  H15Y12134   8.645   3.023   4.903 -0.9629  1.8721  0.7309
   88DOPC  C31612135   8.540   2.946   4.749  0.1106 -0.2897 -0.0609
   88DOPC  H16X12136   8.432   2.951   4.720  0.1399 -0.8846 -0.2754
   88DOPC  H16Y12137   8.599   3.012   4.682  0.9072  0.7577  1.6035
   88DOPC  C31712138   8.586   2.802   4.754 -0.4861 -0.6947 -0.6843
   88DOPC  H17X12139   8.520   2.741   4.818  0.8073 -0.0669  1.3580
   88DOPC  H17Y12140   8.588   2.758   4.652 -0.2572 -0.2094 -0.8973
   88DOPC  C31812141   8.730   2.790   4.817  1.4380 -0.2079  0.4246
   88DOPC  H18X12142   8.775   2.689   4.806 -1.0433 -1.1420 -2.4532
   88DOPC  H18Y12143   8.790   2.870   4.768 -0.9363  0.4641 -1.5864
   88DOPC  H18Z12144   8.720   2.812   4.925 -1.5556  2.0774 -0.1665
   89DOPC     N12145   3.140   0.783   6.230  0.3279  0.1219 -0.0364
   89DOPC   C1212146   3.000   0.785   6.157  0.1506  0.7112  0.1849
   89DOPC  H12A12147   2.971   0.687   6.122  1.7819 -0.2288  1.2720
   89DOPC  H12B12148   3.006   0.859   6.079  0.7538  1.6295  1.0556
   89DOPC   C1312149   3.121   0.703   6.358  0.2327 -0.6705  0.3007
   89DOPC  H13A12150   3.210   0.663   6.404  0.7046  0.6260  0.5697
   89DOPC  H13B12151   3.064   0.757   6.433 -2.1546 -2.0802 -0.3946
   89DOPC  H13C12152   3.059   0.622   6.322  0.1752  0.0259 -1.2095
   89DOPC   C1412153   3.189   0.922   6.261 -0.2407  0.1511  0.4036
   89DOPC  H14A12154   3.166   0.991   6.182  0.0747 -0.7401 -0.4858
   89DOPC  H14B12155   3.127   0.969   6.336 -0.7425 -2.3972  1.6845
   89DOPC  H14C12156   3.294   0.924   6.286  0.1951  1.0203 -1.3142
   89DOPC   C1512157   3.244   0.720   6.147 -0.0619  0.1973  0.1808
   89DOPC  H15A12158   3.274   0.784   6.065 -0.2532  1.2220  0.8956
   89DOPC  H15B12159   3.203   0.630   6.104 -1.7916  1.0484 -0.0136
   89DOPC  H15C12160   3.334   0.696   6.202  0.9328  2.1530 -0.4531
   89DOPC   C1112161   2.871   0.827   6.246 -0.3864 -1.1996  0.5514
   89DOPC  H11A12162   2.780   0.816   6.183  0.4725 -1.8078 -0.6310
   89DOPC  H11B12163   2.857   0.768   6.339  1.1073  0.6578  2.0292
   89DOPC     P12164   2.870   1.090   6.208  0.0789  0.0106  0.1555
   89DOPC   O1312165   2.962   1.196   6.250  0.0091 -0.0803  0.9452
   89DOPC   O1412166   2.721   1.125   6.194 -0.2380 -0.5959 -0.0817
   89DOPC   O1212167   2.888   0.959   6.292 -0.2580  0.3283 -0.0524
   89DOPC   O1112168   2.918   1.040   6.064  0.4378  0.3386 -0.1803
   89DOPC    C112169   2.992   1.136   5.991  0.3598 -0.6109  0.2939
   89DOPC    HA12170   3.044   1.083   5.909  0.9312 -1.5333  1.2137
   89DOPC    HB12171   3.080   1.180   6.041  0.7369 -2.1927  1.1007
   89DOPC    C212172   2.914   1.251   5.934 -0.1885  0.0976  0.0184
   89DOPC    HS12173   2.862   1.303   6.016 -0.7804 -2.7864  1.6062
   89DOPC   O2112174   2.811   1.198   5.849  0.0912 -0.1146 -0.6471
   89DOPC   C2112175   2.720   1.282   5.822  0.1342 -0.4902 -0.4839
   89DOPC   O2212176   2.727   1.404   5.846  0.1887  0.0611  0.2040
   89DOPC   C2212177   2.607   1.210   5.746 -0.5162 -0.0636  0.5804
   89DOPC   H2R12178   2.542   1.164   5.823 -0.8900  0.2448  0.4492
   89DOPC   H2S12179   2.633   1.131   5.671 -1.4337 -1.4982  1.7163
   89DOPC    C312180   3.004   1.348   5.861  0.0839 -0.3727  0.3926
   89DOPC    HX12181   3.067   1.404   5.934  0.9322 -0.6003 -0.1564
   89DOPC    HY12182   2.940   1.423   5.809 -0.5280 -1.0766  0.1227
   89DOPC   O3112183   3.094   1.284   5.766  0.0984  0.5040  0.1997
   89DOPC   C3112184   3.196   1.347   5.731  0.0258  0.1134 -0.5742
   89DOPC   O3212185   3.228   1.458   5.777  0.1582  0.1474  0.5904
   89DOPC   C3212186   3.273   1.263   5.629  0.0590  0.8602 -1.2427
   89DOPC   H2X12187   3.329   1.192   5.693 -0.7983  1.6178  0.3923
   89DOPC   H2Y12188   3.201   1.204   5.568 -0.5206  1.4991 -1.1836
   89DOPC   C2312189   2.537   1.305   5.646  0.4417 -0.4833 -0.3997
   89DOPC   H3R12190   2.545   1.407   5.690  0.9015 -1.5894  2.3450
   89DOPC   H3S12191   2.435   1.262   5.642  0.8815 -1.8960  1.6663
   89DOPC   C2412192   2.586   1.305   5.507 -0.5883  0.4841 -0.2607
   89DOPC   H4R12193   2.512   1.373   5.460 -3.0908 -1.5821  0.4291
   89DOPC   H4S12194   2.575   1.204   5.463 -1.4066  0.4908 -0.0861
   89DOPC   C2512195   2.736   1.347   5.494  0.3825  0.0619 -0.3206
   89DOPC   H5R12196   2.803   1.263   5.521 -1.9425 -2.2213 -1.1880
   89DOPC   H5S12197   2.754   1.425   5.571 -1.1047 -1.2921  1.4900
   89DOPC   C2612198   2.769   1.385   5.345 -0.1804  0.6130 -0.0638
   89DOPC   H6R12199   2.691   1.435   5.283 -0.7646  1.1666  1.0860
   89DOPC   H6S12200   2.804   1.291   5.297 -0.2106  0.2823  0.5495
   89DOPC   C2712201   2.898   1.473   5.322  0.6482  0.2094 -0.1205
   89DOPC   H7R12202   2.985   1.410   5.349 -1.0476 -0.8275  3.6122
   89DOPC   H7S12203   2.887   1.558   5.393  3.6717  0.1393  0.5428
   89DOPC   C2812204   2.917   1.525   5.175  0.3914  0.2995 -0.1215
   89DOPC   H8R12205   2.823   1.549   5.122  1.0292 -1.1719 -2.0532
   89DOPC   H8S12206   2.943   1.430   5.122 -1.6864  0.3306 -1.3017
   89DOPC   C2912207   3.032   1.625   5.169  0.6199 -0.4758 -0.3819
   89DOPC   H9R12208   3.031   1.711   5.238  2.6910 -0.1249 -0.7412
   89DOPC  C21012209   3.138   1.615   5.094  0.3471  0.4515  0.2980
   89DOPC  H10R12210   3.224   1.681   5.106  0.4128  0.1508  1.5734
   89DOPC  C21112211   3.161   1.511   4.982 -0.6801  0.6141 -0.6575
   89DOPC  H11R12212   3.127   1.407   4.999  0.2806  0.5032  0.8205
   89DOPC  H11S12213   3.270   1.495   4.970 -0.7666  0.3777 -1.1350
   89DOPC  C21212214   3.102   1.562   4.847 -0.3665  0.3734  0.0952
   89DOPC  H12R12215   3.144   1.661   4.821  2.3141 -0.8910 -0.7383
   89DOPC  H12S12216   2.991   1.561   4.853 -0.3423 -2.0427  1.7984
   89DOPC  C21312217   3.144   1.474   4.731 -0.3347  0.2873  0.3615
   89DOPC  H13R12218   3.115   1.367   4.730  1.5453 -0.2547  0.8485
   89DOPC  H13S12219   3.254   1.461   4.731 -0.4003 -0.3799 -0.5597
   89DOPC  C21412220   3.103   1.538   4.595 -0.1331 -0.1086 -0.4342
   89DOPC  H14R12221   3.138   1.643   4.604 -4.4740  1.5716 -0.6112
   89DOPC  H14S12222   2.992   1.543   4.593 -0.1087  0.2532 -1.9229
   89DOPC  C21512223   3.162   1.473   4.465 -0.3105  0.1692 -0.4374
   89DOPC  H15R12224   3.128   1.367   4.465  0.8255 -0.2538  1.7470
   89DOPC  H15S12225   3.271   1.468   4.481 -0.1812  4.0223  0.7931
   89DOPC  C21612226   3.135   1.557   4.337 -0.4391 -0.3938  0.5712
   89DOPC  H16R12227   3.188   1.655   4.338 -1.0018 -0.0943  1.4434
   89DOPC  H16S12228   3.025   1.572   4.333 -0.2097  2.1945  2.1654
   89DOPC  C21712229   3.184   1.480   4.204  0.1951 -0.6726 -0.1059
   89DOPC  H17R12230   3.119   1.393   4.179 -1.9849  1.2263 -1.4630
   89DOPC  H17S12231   3.282   1.436   4.231  0.5322  1.1551  1.9688
   89DOPC  C21812232   3.197   1.575   4.083 -0.7622 -0.7263 -0.1776
   89DOPC  H18R12233   3.264   1.661   4.106  0.4774 -1.9522  0.9471
   89DOPC  H18S12234   3.098   1.609   4.045 -0.7196  1.4912  1.4650
   89DOPC  H18T12235   3.242   1.516   4.000  0.7196  0.6249 -0.3920
   89DOPC   C3312236   3.381   1.340   5.549  0.3784  0.3407 -0.9692
   89DOPC   H3X12237   3.449   1.259   5.514  2.6752  0.4511  2.6565
   89DOPC   H3Y12238   3.438   1.406   5.617  0.0145 -0.8893  0.6047
   89DOPC   C3412239   3.307   1.429   5.448 -0.3947 -0.1891 -0.3131
   89DOPC   H4X12240   3.231   1.497   5.494 -0.5805  0.4041 -1.4471
   89DOPC   H4Y12241   3.254   1.352   5.388  0.0282 -0.1604 -0.7366
   89DOPC   C3512242   3.389   1.516   5.344 -0.9211 -0.3417 -0.0932
   89DOPC   H5X12243   3.450   1.598   5.388  1.7993 -1.8217 -0.8800
   89DOPC   H5Y12244   3.313   1.544   5.267 -2.0605 -1.7175  0.4827
   89DOPC   C3612245   3.490   1.425   5.259 -0.5802  0.4233 -0.4128
   89DOPC   H6X12246   3.553   1.363   5.327  0.4931  2.1843  0.2433
   89DOPC   H6Y12247   3.437   1.356   5.189 -1.7579  0.9627 -0.0661
   89DOPC   C3712248   3.573   1.506   5.167 -0.3811  0.4133  0.1396
   89DOPC   H7X12249   3.494   1.553   5.104 -2.5346  1.6683  3.4836
   89DOPC   H7Y12250   3.641   1.579   5.215 -0.5462  0.2979  0.5459
   89DOPC   C3812251   3.655   1.409   5.081  0.1393 -0.0767  0.8828
   89DOPC   H8X12252   3.593   1.329   5.034  0.3191  0.2634  0.0653
   89DOPC   H8Y12253   3.712   1.360   5.163  1.4035  0.4962  0.3650
   89DOPC   C3912254   3.749   1.470   4.992 -0.2125 -0.5305 -0.6220
   89DOPC   H9X12255   3.821   1.541   5.035 -0.2864 -0.0572 -1.2543
   89DOPC  C31012256   3.749   1.458   4.864 -0.7407 -0.0204  0.9769
   89DOPC  H10X12257   3.820   1.520   4.808  0.5534 -1.1203  1.3499
   89DOPC  C31112258   3.652   1.369   4.779 -0.1122 -0.4813 -0.3490
   89DOPC  H11X12259   3.568   1.320   4.832  0.9771 -0.9496  1.0006
   89DOPC  H11Y12260   3.710   1.289   4.729 -1.3911 -1.1435 -0.8132
   89DOPC  C31212261   3.589   1.451   4.671 -0.4603 -0.6515 -0.3645
   89DOPC  H12X12262   3.544   1.546   4.708 -0.3470  0.4610 -2.8575
   89DOPC  H12Y12263   3.498   1.395   4.639 -1.6700  0.4104  1.0642
   89DOPC  C31312264   3.676   1.485   4.543  0.2244  0.2483 -0.3921
   89DOPC  H13X12265   3.743   1.569   4.571  1.2115 -1.7261  4.0995
   89DOPC  H13Y12266   3.752   1.405   4.528 -0.3064 -0.6274  1.3098
   89DOPC  C31412267   3.595   1.504   4.422  0.1544  0.1565  0.2063
   89DOPC  H14X12268   3.526   1.418   4.411 -1.3865  1.3341  0.3628
   89DOPC  H14Y12269   3.525   1.590   4.436  0.4519  0.6115 -0.9491
   89DOPC  C31512270   3.672   1.516   4.286  0.1744 -0.7609  0.7950
   89DOPC  H15X12271   3.690   1.411   4.254 -1.2966 -0.4525 -1.2521
   89DOPC  H15Y12272   3.763   1.580   4.291 -0.5530  0.2044  3.4716
   89DOPC  C31612273   3.586   1.571   4.176 -0.0668 -0.4550 -0.2541
   89DOPC  H16X12274   3.499   1.507   4.149 -1.0020 -0.0945  1.7507
   89DOPC  H16Y12275   3.519   1.657   4.195  1.7856  1.5295 -2.1167
   89DOPC  C31712276   3.660   1.606   4.041 -0.0824  0.0315 -0.0269
   89DOPC  H17X12277   3.761   1.650   4.058 -0.1877  0.0594  0.5299
   89DOPC  H17Y12278   3.681   1.509   3.992  2.4697  0.4061  0.1955
   89DOPC  C31812279   3.577   1.700   3.953 -0.7073  0.3817 -0.2844
   89DOPC  H18X12280   3.497   1.639   3.905  0.3473 -0.7685 -0.6634
   89DOPC  H18Y12281   3.540   1.790   4.006 -1.1852  0.4729 -0.7605
   89DOPC  H18Z12282   3.629   1.742   3.864 -1.3979 -0.6216 -1.2030
   90DOPC     N12283   6.610   7.801   6.509 -0.0336  0.3716 -0.2097
   90DOPC   C1212284   6.657   7.746   6.373 -0.2209 -0.2558  0.1536
   90DOPC  H12A12285   6.751   7.788   6.340 -0.7541  0.7117 -0.1619
   90DOPC  H12B12286   6.588   7.788   6.302  1.2520 -2.0013 -2.4705
   90DOPC   C1312287   6.618   7.951   6.515  0.4408  0.1560 -0.7968
   90DOPC  H13A12288   6.553   7.997   6.443 -1.1171  0.7063  0.8954
   90DOPC  H13B12289   6.591   7.988   6.613  0.3186  0.2326 -0.8594
   90DOPC  H13C12290   6.723   7.974   6.502  0.7991 -0.0595  1.3725
   90DOPC   C1412291   6.695   7.739   6.619  0.0114  0.6683 -0.0573
   90DOPC  H14A12292   6.694   7.631   6.624  0.7915  0.6441 -0.2340
   90DOPC  H14B12293   6.799   7.770   6.614  0.1061  0.1580 -3.0851
   90DOPC  H14C12294   6.663   7.774   6.716 -1.0647 -0.1250 -0.1167
   90DOPC   C1512295   6.474   7.748   6.544  0.0992 -0.1368  0.2940
   90DOPC  H15A12296   6.397   7.790   6.480  0.8467  0.6009 -0.1371
   90DOPC  H15B12297   6.456   7.767   6.649 -0.3658  0.2432  0.1525
   90DOPC  H15C12298   6.471   7.643   6.523  0.6577  0.3674 -2.7335
   90DOPC   C1112299   6.649   7.595   6.352  0.9153 -0.4762 -0.1252
   90DOPC  H11A12300   6.545   7.562   6.375  0.9528 -0.5641 -0.0820
   90DOPC  H11B12301   6.674   7.577   6.245  1.5892  0.1050 -0.0691
   90DOPC     P12302   6.727   7.365   6.436 -0.3080  0.0202 -0.2034
   90DOPC   O1312303   6.590   7.327   6.468  0.1169  0.0716  0.2656
   90DOPC   O1412304   6.844   7.318   6.519  0.7676 -0.0513  0.2309
   90DOPC   O1212305   6.753   7.525   6.428  0.1599 -0.0293  0.8030
   90DOPC   O1112306   6.746   7.315   6.286  0.0275 -0.1375 -0.0550
   90DOPC    C112307   6.869   7.346   6.220  0.3218 -0.0858  0.6409
   90DOPC    HA12308   6.952   7.289   6.267  1.3576 -0.2728 -1.3146
   90DOPC    HB12309   6.888   7.456   6.222 -0.2354 -0.0008  1.3788
   90DOPC    C212310   6.851   7.302   6.070  0.0743 -0.2469 -0.0359
   90DOPC    HS12311   6.948   7.319   6.019  0.0982 -2.0582 -0.6581
   90DOPC   O2112312   6.733   7.365   6.017  0.2734  0.2670  0.4465
   90DOPC   C2112313   6.761   7.463   5.938 -0.0419 -0.2385  0.3352
   90DOPC   O2212314   6.874   7.505   5.911  0.4648 -0.4349 -0.0797
   90DOPC   C2212315   6.624   7.523   5.887 -0.2989 -0.4621 -0.7196
   90DOPC   H2R12316   6.628   7.624   5.933 -3.3728 -0.7624  0.4429
   90DOPC   H2S12317   6.547   7.459   5.934 -0.5715 -0.7481 -1.5286
   90DOPC    C312318   6.831   7.150   6.057 -0.1463 -0.3631 -0.2688
   90DOPC    HX12319   6.751   7.116   6.125  0.1069  0.0249  0.2213
   90DOPC    HY12320   6.922   7.092   6.086 -0.8747 -2.2466 -1.5120
   90DOPC   O3112321   6.805   7.117   5.915  0.0147  0.2212  0.2781
   90DOPC   C3112322   6.671   7.100   5.892 -0.0609  0.7710  0.5415
   90DOPC   O3212323   6.581   7.113   5.971 -0.3953 -0.3069 -0.1412
   90DOPC   C3212324   6.648   7.052   5.751  0.4219  0.3320 -0.0099
   90DOPC   H2X12325   6.745   7.047   5.696  0.1995 -0.8037 -0.3335
   90DOPC   H2Y12326   6.601   6.951   5.754  0.3269  0.4015  1.0294
   90DOPC   C2312327   6.618   7.546   5.731  0.1668 -0.2943  0.2372
   90DOPC   H3R12328   6.616   7.457   5.664  2.4651  0.3199 -0.7339
   90DOPC   H3S12329   6.715   7.588   5.697 -0.8824  2.6113  0.5045
   90DOPC   C2412330   6.509   7.648   5.685  0.4118  0.3648 -0.8778
   90DOPC   H4R12331   6.532   7.679   5.581 -0.3153 -0.2667 -1.2316
   90DOPC   H4S12332   6.521   7.739   5.749  2.8156  0.1341 -0.9083
   90DOPC   C2512333   6.369   7.588   5.694  0.6735  0.3497 -0.1250
   90DOPC   H5R12334   6.326   7.619   5.792 -3.0723  1.2092 -1.8546
   90DOPC   H5S12335   6.373   7.477   5.695  1.5810  0.3492 -1.2926
   90DOPC   C2612336   6.269   7.635   5.580 -0.1556 -0.5554  0.0041
   90DOPC   H6R12337   6.281   7.745   5.570 -3.8056  0.1795  1.8647
   90DOPC   H6S12338   6.166   7.612   5.615 -0.9682  0.9564 -1.3184
   90DOPC   C2712339   6.294   7.564   5.445  0.3175 -0.3484 -0.2598
   90DOPC   H7R12340   6.240   7.468   5.463  1.7113 -0.9913  0.7263
   90DOPC   H7S12341   6.402   7.539   5.441 -0.2023 -2.9224 -0.0085
   90DOPC   C2812342   6.241   7.648   5.321  0.0056  0.2795 -0.3311
   90DOPC   H8R12343   6.146   7.698   5.350  0.7996  1.5833  0.0928
   90DOPC   H8S12344   6.222   7.575   5.240  3.3865 -0.5317 -0.5136
   90DOPC   C2912345   6.350   7.745   5.284 -0.4834 -0.0721  0.3193
   90DOPC   H9R12346   6.365   7.829   5.353  1.3399 -0.8344  0.9252
   90DOPC  C21012347   6.428   7.736   5.175 -0.9194  0.4460  0.4003
   90DOPC  H10R12348   6.490   7.822   5.145  0.4143 -0.8825 -0.8092
   90DOPC  C21112349   6.428   7.610   5.079 -0.2623 -0.8059 -0.4864
   90DOPC  H11R12350   6.396   7.522   5.138  1.7071 -0.9753  0.4006
   90DOPC  H11S12351   6.530   7.588   5.041 -0.6185  0.2627 -2.2108
   90DOPC  C21212352   6.331   7.641   4.962 -0.0441 -0.2937 -0.1768
   90DOPC  H12R12353   6.358   7.741   4.921  0.8587 -0.5633 -0.2405
   90DOPC  H12S12354   6.225   7.650   4.997 -1.1952 -0.6368 -3.2612
   90DOPC  C21312355   6.332   7.526   4.856  0.3895 -1.0378 -0.3521
   90DOPC  H13R12356   6.313   7.431   4.910  0.7663 -1.2874 -0.6529
   90DOPC  H13S12357   6.437   7.507   4.828  0.4590 -0.3050 -0.5903
   90DOPC  C21412358   6.242   7.540   4.729  0.1506 -0.6277  0.3971
   90DOPC  H14R12359   6.266   7.631   4.669 -1.2944  0.2574  1.1020
   90DOPC  H14S12360   6.141   7.566   4.767 -0.6250  0.3042 -2.0869
   90DOPC  C21512361   6.240   7.411   4.650 -0.4163 -0.0437  0.3265
   90DOPC  H15R12362   6.202   7.336   4.723  0.1321 -0.1539  0.5024
   90DOPC  H15S12363   6.342   7.383   4.616 -1.2433 -2.8416 -0.1067
   90DOPC  C21612364   6.150   7.425   4.521 -0.2982  0.2573 -0.3088
   90DOPC  H16R12365   6.202   7.502   4.460 -2.0242  3.4073  1.9100
   90DOPC  H16S12366   6.048   7.453   4.555  0.0189 -0.6959  1.5574
   90DOPC  C21712367   6.136   7.292   4.445  0.5965  0.4864  0.9911
   90DOPC  H17R12368   6.076   7.303   4.352  1.8146 -2.3262 -0.2767
   90DOPC  H17S12369   6.087   7.220   4.514  1.3152 -0.4123  0.5947
   90DOPC  C21812370   6.271   7.240   4.396 -0.6097  0.4864  0.4831
   90DOPC  H18R12371   6.317   7.308   4.322 -3.6683  1.3566 -0.7730
   90DOPC  H18S12372   6.248   7.149   4.336  0.8353  0.9597 -0.8656
   90DOPC  H18T12373   6.342   7.207   4.475 -0.2371  1.7061  0.6720
   90DOPC   C3312374   6.546   7.138   5.681 -0.3065 -0.7240  0.5345
   90DOPC   H3X12375   6.595   7.237   5.673 -2.5575  0.3538 -1.0412
   90DOPC   H3Y12376   6.451   7.166   5.731 -0.6423  1.0504 -1.0063
   90DOPC   C3412377   6.514   7.100   5.535 -0.1621 -0.2213  0.4214
   90DOPC   H4X12378   6.462   7.187   5.489 -0.5295 -0.2397  0.7910
   90DOPC   H4Y12379   6.435   7.022   5.530 -0.3024 -0.1344  1.1833
   90DOPC   C3512380   6.641   7.068   5.452 -1.1227 -0.4433  0.0479
   90DOPC   H5X12381   6.674   6.966   5.483 -0.5204  0.2694  1.9108
   90DOPC   H5Y12382   6.714   7.147   5.479  0.4547 -2.3569  1.8061
   90DOPC   C3612383   6.626   7.073   5.300  0.5491 -0.3602  0.0500
   90DOPC   H6X12384   6.723   7.043   5.255  0.4915  3.0086 -2.7078
   90DOPC   H6Y12385   6.552   6.993   5.276 -0.2532  0.3710  0.0395
   90DOPC   C3712386   6.586   7.195   5.229 -0.0517  0.3210  0.6640
   90DOPC   H7X12387   6.503   7.234   5.291 -1.1045 -1.4072  0.4101
   90DOPC   H7Y12388   6.673   7.264   5.234  1.8193 -1.8171 -0.6663
   90DOPC   C3812389   6.564   7.167   5.077  0.0306  0.4807 -0.1255
   90DOPC   H8X12390   6.472   7.116   5.040 -0.2694 -0.5648  1.9483
   90DOPC   H8Y12391   6.648   7.099   5.050 -2.7575 -2.6801 -1.5233
   90DOPC   C3912392   6.584   7.297   5.004  0.3289 -0.0557 -0.1170
   90DOPC   H9X12393   6.570   7.382   5.072  1.9873 -0.4266  0.7450
   90DOPC  C31012394   6.644   7.316   4.883  0.5927  0.1088 -0.2720
   90DOPC  H10X12395   6.660   7.418   4.845  0.0246  0.3270  0.0591
   90DOPC  C31112396   6.695   7.209   4.794  0.0527 -0.3455  0.4807
   90DOPC  H11X12397   6.672   7.109   4.838  1.1166  0.5906  3.4308
   90DOPC  H11Y12398   6.805   7.215   4.781 -0.2114  0.9802 -1.5700
   90DOPC  C31212399   6.631   7.218   4.656 -0.1395  0.6787  0.2033
   90DOPC  H12X12400   6.640   7.319   4.612  0.2166  0.2949 -0.6476
   90DOPC  H12Y12401   6.522   7.196   4.665  0.4188 -1.9969  1.4470
   90DOPC  C31312402   6.681   7.111   4.561 -0.4928  0.3993  0.3964
   90DOPC  H13X12403   6.612   7.113   4.474  0.5140 -1.2352 -0.4762
   90DOPC  H13Y12404   6.787   7.126   4.532 -0.7899  1.7352 -0.0591
   90DOPC  C31412405   6.656   6.963   4.608  0.1637 -0.3298  0.1924
   90DOPC  H14X12406   6.697   6.952   4.710  1.2256 -0.6599 -0.2510
   90DOPC  H14Y12407   6.548   6.939   4.614  0.2656 -0.6963  0.6250
   90DOPC  C31512408   6.706   6.852   4.514  0.2245 -0.3052 -0.4819
   90DOPC  H15X12409   6.693   6.755   4.567 -1.2856 -0.4286 -1.0279
   90DOPC  H15Y12410   6.816   6.851   4.499  0.0176 -1.9437 -2.2255
   90DOPC  C31612411   6.623   6.831   4.385  0.2829 -0.1313  0.1358
   90DOPC  H16X12412   6.516   6.831   4.417  0.9611  0.7775  2.6111
   90DOPC  H16Y12413   6.641   6.924   4.326  0.7607 -1.0610 -1.2092
   90DOPC  C31712414   6.651   6.707   4.299 -0.0679  0.6730 -0.0438
   90DOPC  H17X12415   6.657   6.623   4.371  1.7203  1.0670  0.3052
   90DOPC  H17Y12416   6.563   6.699   4.231  0.9246 -0.1442 -1.2816
   90DOPC  C31812417   6.780   6.701   4.228  0.8603 -0.3885 -0.2893
   90DOPC  H18X12418   6.869   6.714   4.294  2.3157 -0.9365 -2.0496
   90DOPC  H18Y12419   6.785   6.603   4.176  0.7445 -1.2572  1.2803
   90DOPC  H18Z12420   6.773   6.783   4.153 -2.7675  0.1454  0.4815
   91DOPC     N12421  11.414   4.154   5.837 -0.5981 -0.5606 -0.1990
   91DOPC   C1212422  11.305   4.146   5.735 -0.1007  0.5977  0.6726
   91DOPC  H12A12423  11.354   4.091   5.656  1.0849  2.4347  0.0776
   91DOPC  H12B12424  11.279   4.241   5.691  2.2302  1.0942  0.2153
   91DOPC   C1312425  11.534   4.212   5.765 -0.0465  0.8324  0.2954
   91DOPC  H13A12426  11.500   4.288   5.696  2.7728  0.9368 -1.1134
   91DOPC  H13B12427  11.613   4.255   5.826  1.7419  0.8779 -1.9156
   91DOPC  H13C12428  11.582   4.125   5.723  0.3900  0.0120  2.3782
   91DOPC   C1412429  11.462   4.021   5.895  0.6749 -0.3956  0.1487
   91DOPC  H14A12430  11.388   3.979   5.961  0.4520  0.8645  0.7408
   91DOPC  H14B12431  11.495   3.951   5.820 -0.2838  0.1878 -0.8486
   91DOPC  H14C12432  11.548   4.030   5.961  0.9478  0.1834 -0.2721
   91DOPC   C1512433  11.369   4.247   5.945  0.2197 -0.1380  0.2269
   91DOPC  H15A12434  11.302   4.188   6.006  0.8386 -1.5028 -0.3728
   91DOPC  H15B12435  11.323   4.337   5.908  2.9382  1.8909  1.4083
   91DOPC  H15C12436  11.446   4.279   6.014  0.2232  1.1324 -0.3432
   91DOPC   C1112437  11.173   4.085   5.774  0.3851 -0.6191  0.1365
   91DOPC  H11A12438  11.115   4.061   5.682 -0.3409  0.5957  0.2508
   91DOPC  H11B12439  11.184   3.985   5.821  0.1876 -2.1243 -2.7966
   91DOPC     P12440  11.013   4.287   5.804 -0.2698 -0.2257  0.0765
   91DOPC   O1312441  11.074   4.397   5.889 -0.4592  0.1768  0.2574
   91DOPC   O1412442  10.867   4.267   5.813  0.2802 -0.4779  0.2430
   91DOPC   O1212443  11.094   4.163   5.859  0.3630 -0.3122  0.0135
   91DOPC   O1112444  11.060   4.293   5.655 -0.4337  0.0900  0.3594
   91DOPC    C112445  11.063   4.414   5.574 -0.2970  0.6445 -0.5307
   91DOPC    HA12446  11.152   4.478   5.587  0.6756 -0.3728 -1.8998
   91DOPC    HB12447  10.978   4.480   5.602 -0.7449 -0.8870  2.0591
   91DOPC    C212448  11.050   4.376   5.420 -0.3395  0.0619 -0.6940
   91DOPC    HS12449  11.031   4.472   5.367 -0.4410  1.4102  1.6451
   91DOPC   O2112450  10.950   4.274   5.394  0.2310 -0.3499  0.1418
   91DOPC   C2112451  10.816   4.312   5.432  0.3326 -0.0944  0.3386
   91DOPC   O2212452  10.780   4.422   5.460 -0.1654  0.9385  0.1751
   91DOPC   C2212453  10.720   4.194   5.429  0.2755  0.6761 -0.0365
   91DOPC   H2R12454  10.698   4.155   5.530 -1.8884 -0.1086 -0.7547
   91DOPC   H2S12455  10.767   4.118   5.364 -3.2422 -0.8584 -1.0417
   91DOPC    C312456  11.190   4.320   5.383 -0.3745  0.9821  0.4659
   91DOPC    HX12457  11.195   4.224   5.440 -0.6457  1.0419  0.5934
   91DOPC    HY12458  11.276   4.383   5.411  1.1647 -0.6596 -0.3020
   91DOPC   O3112459  11.190   4.294   5.239 -0.3551 -0.5289 -0.4549
   91DOPC   C3112460  11.290   4.219   5.203 -0.3075 -0.4405 -0.0533
   91DOPC   O3212461  11.375   4.174   5.276 -0.1929  0.1678  0.2139
   91DOPC   C3212462  11.286   4.186   5.051  0.2465 -0.1741 -0.0487
   91DOPC   H2X12463  11.183   4.179   5.012  0.0289  0.4041  0.4097
   91DOPC   H2Y12464  11.320   4.281   5.005  1.3165 -0.8607 -0.7301
   91DOPC   C2312465  10.592   4.231   5.347  0.4006  1.1611 -0.3584
   91DOPC   H3R12466  10.540   4.323   5.381  0.6007  1.6082 -1.2355
   91DOPC   H3S12467  10.518   4.148   5.356  1.0014  0.3455 -2.4036
   91DOPC   C2412468  10.624   4.247   5.191  0.2325 -0.3291 -0.4719
   91DOPC   H4R12469  10.712   4.316   5.185  1.5961 -1.7500  1.6724
   91DOPC   H4S12470  10.550   4.310   5.137  0.9708 -0.6274 -1.8859
   91DOPC   C2512471  10.639   4.122   5.118 -0.3014  0.4512 -0.0535
   91DOPC   H5R12472  10.554   4.059   5.150 -0.6038  1.7802  1.9659
   91DOPC   H5S12473  10.730   4.066   5.149 -1.0404 -0.5549  0.3460
   91DOPC   C2612474  10.644   4.137   4.968  0.1390 -0.0145 -0.4435
   91DOPC   H6R12475  10.732   4.195   4.934  1.7625 -0.2607  2.9478
   91DOPC   H6S12476  10.548   4.190   4.949  0.0244  0.2873  0.8536
   91DOPC   C2712477  10.650   3.994   4.911 -0.2821 -0.4990 -0.4623
   91DOPC   H7R12478  10.572   3.938   4.965  0.6791 -0.3713  1.1121
   91DOPC   H7S12479  10.742   3.941   4.942  0.0699  1.2028  1.6188
   91DOPC   C2812480  10.621   3.998   4.759 -0.5635 -0.0363 -0.3027
   91DOPC   H8R12481  10.535   4.067   4.745  0.0551  0.9630  0.6604
   91DOPC   H8S12482  10.589   3.897   4.725  1.6124 -0.9007  0.0409
   91DOPC   C2912483  10.739   4.052   4.683 -0.0456 -0.2000 -0.1451
   91DOPC   H9R12484  10.796   4.130   4.735 -0.9083  0.0662  0.4209
   91DOPC  C21012485  10.779   4.012   4.557  0.4918 -0.0148 -0.1763
   91DOPC  H10R12486  10.857   4.075   4.513  1.6040  0.3465  2.1660
   91DOPC  C21112487  10.719   3.898   4.484  0.0310 -0.1506  0.1673
   91DOPC  H11R12488  10.625   3.863   4.531 -1.1925  0.0297 -2.0408
   91DOPC  H11S12489  10.790   3.812   4.491 -0.9861 -1.0878 -0.6620
   91DOPC  C21212490  10.694   3.929   4.331  0.1111  0.3719 -0.4676
   91DOPC  H12R12491  10.651   3.841   4.279  1.9292 -0.8814  0.0608
   91DOPC  H12S12492  10.790   3.944   4.276  0.4052 -0.1531 -0.0999
   91DOPC  C21312493  10.594   4.047   4.306 -0.6432 -0.1337  0.4536
   91DOPC  H13R12494  10.641   4.147   4.310  1.2628 -0.8841 -1.4391
   91DOPC  H13S12495  10.519   4.049   4.388 -1.5559  0.0564 -0.3627
   91DOPC  C21412496  10.502   4.031   4.190 -0.0655  0.0550 -0.1614
   91DOPC  H14R12497  10.558   3.995   4.101 -0.9382 -0.6085 -0.4655
   91DOPC  H14S12498  10.461   4.131   4.163  1.1468  0.2024 -1.5959
   91DOPC  C21512499  10.391   3.929   4.216  0.0900  0.5113  0.2517
   91DOPC  H15R12500  10.388   3.885   4.318 -1.3187  1.5939  0.7071
   91DOPC  H15S12501  10.406   3.846   4.143 -0.6425 -1.1130  1.8665
   91DOPC  C21612502  10.253   3.982   4.174  0.3996  0.9384  0.1814
   91DOPC  H16R12503  10.259   4.024   4.071  0.8748 -1.1901 -0.7283
   91DOPC  H16S12504  10.228   4.064   4.243 -4.0439  0.1356 -0.2134
   91DOPC  C21712505  10.133   3.887   4.185 -0.2392 -0.4340  0.1737
   91DOPC  H17R12506  10.097   3.871   4.288  0.3751  1.8304  0.7936
   91DOPC  H17S12507  10.142   3.790   4.131 -0.6319  0.5619 -1.7947
   91DOPC  C21812508  10.003   3.949   4.116 -0.5539  0.6197 -0.1106
   91DOPC  H18R12509  10.019   3.961   4.006 -0.0089 -0.0807 -0.1167
   91DOPC  H18S12510   9.977   4.049   4.157  1.7205  2.3158 -2.4763
   91DOPC  H18T12511   9.920   3.877   4.125  1.0104 -1.4648 -1.3170
   91DOPC   C3312512  11.388   4.071   5.018 -0.0625 -0.5410 -0.2266
   91DOPC   H3X12513  11.337   3.979   5.052  0.8329 -0.8784  0.2397
   91DOPC   H3Y12514  11.489   4.081   5.064  0.0269  0.9365 -0.6842
   91DOPC   C3412515  11.406   4.059   4.866  1.2095  0.3856 -0.6760
   91DOPC   H4X12516  11.473   4.137   4.824 -0.5087  1.6686 -1.1529
   91DOPC   H4Y12517  11.305   4.066   4.820  1.9419  0.2175 -2.3913
   91DOPC   C3512518  11.452   3.920   4.823 -0.0074 -0.7313  0.3759
   91DOPC   H5X12519  11.371   3.848   4.846  0.8370 -1.4838  1.0287
   91DOPC   H5Y12520  11.539   3.910   4.891 -0.7806 -0.5909  1.4145
   91DOPC   C3612521  11.504   3.915   4.678  0.4962  0.6468  0.8260
   91DOPC   H6X12522  11.425   3.958   4.612 -0.2256 -1.1698  0.4234
   91DOPC   H6Y12523  11.594   3.979   4.665  1.0663 -0.0191  1.3852
   91DOPC   C3712524  11.517   3.773   4.627 -0.0055  0.3993 -0.3404
   91DOPC   H7X12525  11.557   3.710   4.709 -0.4038  1.5598  0.7852
   91DOPC   H7Y12526  11.416   3.733   4.608  0.0354  0.5291 -0.8392
   91DOPC   C3812527  11.601   3.756   4.497 -0.0445 -0.4843 -0.5461
   91DOPC   H8X12528  11.618   3.647   4.479 -0.6733 -0.5887 -0.5343
   91DOPC   H8Y12529  11.699   3.801   4.524  0.7136 -0.7196 -2.6880
   91DOPC   C3912530  11.546   3.818   4.378 -0.0073 -0.1949 -0.1656
   91DOPC   H9X12531  11.477   3.903   4.389 -0.2201 -0.4068  0.1535
   91DOPC  C31012532  11.589   3.794   4.252 -0.1710 -0.1742  0.0432
   91DOPC  H10X12533  11.555   3.869   4.180  0.9028  0.5405  0.2463
   91DOPC  C31112534  11.702   3.708   4.214  0.5278  0.6732 -0.3021
   91DOPC  H11X12535  11.667   3.632   4.142 -0.1868 -0.1832  0.9045
   91DOPC  H11Y12536  11.751   3.662   4.302  0.5183  1.7635  0.2957
   91DOPC  C31212537  11.814   3.792   4.150  0.5122  0.0166  0.6185
   91DOPC  H12X12538  11.843   3.885   4.205  1.0996  2.2503 -3.1582
   91DOPC  H12Y12539  11.768   3.835   4.059 -0.8590 -1.6974  0.4567
   91DOPC  C31312540  11.933   3.701   4.110 -0.9801 -0.6091  1.0865
   91DOPC  H13X12541  11.943   3.631   4.195  1.0341 -1.5247  0.1670
   91DOPC  H13Y12542  11.904   3.646   4.019  0.9981 -1.2224  0.7702
   91DOPC  C31412543  12.064   3.788   4.094  0.0822  0.7778 -0.5378
   91DOPC  H14X12544  12.038   3.883   4.043 -0.3071  1.2573  0.5286
   91DOPC  H14Y12545  12.100   3.806   4.197 -3.2877  0.7458  0.7554
   91DOPC  C31512546  12.182   3.717   4.025 -0.4072 -0.2121  0.3616
   91DOPC  H15X12547  12.277   3.774   4.030  0.4506 -1.5233 -0.4295
   91DOPC  H15Y12548  12.161   3.697   3.918  1.8688  0.0071 -0.1712
   91DOPC  C31612549  12.218   3.583   4.097  0.1643  0.1113  0.5010
   91DOPC  H16X12550  12.197   3.593   4.205 -1.3410  0.9308  0.1593
   91DOPC  H16Y12551  12.148   3.503   4.065  0.0509  0.5211 -0.3182
   91DOPC  C31712552  12.365   3.527   4.069  0.1201 -0.5482 -0.0478
   91DOPC  H17X12553  12.392   3.501   3.964 -0.8636  0.5658 -0.6040
   91DOPC  H17Y12554  12.438   3.607   4.095 -1.3200  1.2286 -1.1763
   91DOPC  C31812555  12.382   3.403   4.155  0.6185  1.0243  0.8084
   91DOPC  H18X12556  12.365   3.426   4.263  0.3570 -1.5225  1.3743
   91DOPC  H18Y12557  12.309   3.326   4.121  0.5009  1.7723 -0.7125
   91DOPC  H18Z12558  12.480   3.358   4.130  0.5544  2.0600 -1.4752
   92DOPC     N12559   5.151   0.982   6.149 -0.0125  0.3753  0.1539
   92DOPC   C1212560   5.077   0.937   6.025  0.1572 -0.1903  0.1577
   92DOPC  H12A12561   5.019   0.848   6.045  0.2493 -0.8826 -2.3696
   92DOPC  H12B12562   5.143   0.916   5.943  0.9316  0.0423  0.7092
   92DOPC   C1312563   5.244   0.884   6.198 -0.5033  0.0731 -0.2411
   92DOPC  H13A12564   5.284   0.918   6.293  1.4888 -0.5461 -0.8197
   92DOPC  H13B12565   5.204   0.784   6.207  1.3836 -0.8494 -1.6678
   92DOPC  H13C12566   5.330   0.879   6.134 -1.0737 -0.4683 -0.9803
   92DOPC   C1412567   5.055   1.008   6.267 -0.1571 -0.3307 -0.1729
   92DOPC  H14A12568   5.004   0.924   6.312 -0.7829  0.5403  0.7877
   92DOPC  H14B12569   5.104   1.057   6.351 -1.1555  2.4933 -1.1133
   92DOPC  H14C12570   4.972   1.068   6.233 -0.8802 -1.1378  0.1317
   92DOPC   C1512571   5.227   1.119   6.134 -0.0573 -0.2482 -0.2189
   92DOPC  H15A12572   5.273   1.152   6.226 -1.3626 -0.6980  0.6228
   92DOPC  H15B12573   5.159   1.202   6.118 -0.6288 -0.2573  1.9367
   92DOPC  H15C12574   5.292   1.119   6.048  0.6560 -1.5642  0.2952
   92DOPC   C1112575   4.967   1.043   5.975 -0.5222  0.2585 -0.5116
   92DOPC  H11A12576   5.018   1.135   5.940  0.4913  0.5004  1.4677
   92DOPC  H11B12577   4.918   1.001   5.885  0.2576 -0.8909 -0.4144
   92DOPC     P12578   4.736   0.995   6.080 -0.3783  0.0420 -0.3392
   92DOPC   O1312579   4.645   1.060   6.181  0.3177 -0.3866 -0.3000
   92DOPC   O1412580   4.779   0.857   6.101 -0.3504  0.4940  0.6410
   92DOPC   O1212581   4.868   1.075   6.072 -0.5768 -0.3819 -0.1637
   92DOPC   O1112582   4.665   1.002   5.941 -0.5783 -0.6355  0.3187
   92DOPC    C112583   4.617   1.128   5.892  0.1956  0.3331 -0.1310
   92DOPC    HA12584   4.669   1.220   5.927  0.5661  0.8336 -1.9197
   92DOPC    HB12585   4.508   1.118   5.913  0.3142 -0.9742 -0.0557
   92DOPC    C212586   4.636   1.121   5.745  0.2703 -0.3509 -0.2665
   92DOPC    HS12587   4.574   1.035   5.711 -0.9097  0.3324  0.0769
   92DOPC   O2112588   4.773   1.113   5.711 -0.1439 -0.0291  0.2158
   92DOPC   C2112589   4.799   1.036   5.601 -0.1120  0.2868 -0.6807
   92DOPC   O2212590   4.726   0.967   5.534  0.7525  0.4190  0.1636
   92DOPC   C2212591   4.944   1.044   5.575 -0.4855  0.5570  0.4548
   92DOPC   H2R12592   4.987   0.943   5.590 -1.8629 -0.8970 -3.7009
   92DOPC   H2S12593   4.983   1.110   5.655  2.6976 -1.1356  0.4424
   92DOPC    C312594   4.575   1.246   5.674 -0.1155 -0.1081 -0.3086
   92DOPC    HX12595   4.645   1.328   5.699 -0.4587 -0.3927  1.7395
   92DOPC    HY12596   4.476   1.288   5.703  0.9954  1.8880  0.8337
   92DOPC   O3112597   4.571   1.224   5.531 -0.3637 -0.5680  0.5369
   92DOPC   C3112598   4.467   1.144   5.498 -0.5640 -0.3494  0.0616
   92DOPC   O3212599   4.380   1.107   5.577 -0.2363  0.1947  0.4179
   92DOPC   C3212600   4.480   1.111   5.353 -0.1464 -0.4210 -0.7837
   92DOPC   H2X12601   4.526   1.011   5.342 -1.4448 -1.2097  0.5558
   92DOPC   H2Y12602   4.374   1.113   5.318  0.0933  3.4259 -1.8374
   92DOPC   C2312603   4.964   1.109   5.434 -0.6833 -0.4873  0.0050
   92DOPC   H3R12604   4.917   1.210   5.434  1.4895  0.7004 -3.2971
   92DOPC   H3S12605   4.905   1.062   5.353  0.5391  0.0460 -1.2416
   92DOPC   C2412606   5.117   1.117   5.387 -0.0558  0.1036 -0.4859
   92DOPC   H4R12607   5.144   1.010   5.374 -1.2449 -0.7136  2.6937
   92DOPC   H4S12608   5.167   1.158   5.477 -0.7011  0.0373 -0.0925
   92DOPC   C2512609   5.139   1.205   5.266 -0.8779  0.1575 -0.0731
   92DOPC   H5R12610   5.095   1.306   5.272 -0.7016  0.2989 -1.0017
   92DOPC   H5S12611   5.082   1.151   5.187  0.1072 -0.1054 -0.6192
   92DOPC   C2612612   5.283   1.226   5.228  0.8744 -0.1494  0.0254
   92DOPC   H6R12613   5.344   1.134   5.214  0.5787 -0.0448 -2.3546
   92DOPC   H6S12614   5.333   1.293   5.301  0.5624 -0.4400  0.5096
   92DOPC   C2712615   5.299   1.298   5.089 -0.1232  0.3140 -0.2107
   92DOPC   H7R12616   5.230   1.384   5.087 -1.2941 -0.4315  2.6695
   92DOPC   H7S12617   5.269   1.221   5.015 -0.0118 -0.8064  0.8767
   92DOPC   C2812618   5.441   1.354   5.064 -0.4299 -0.4117  0.7929
   92DOPC   H8R12619   5.506   1.264   5.068  0.8216  0.5046  1.2656
   92DOPC   H8S12620   5.468   1.422   5.147  0.7375 -0.4925  0.4881
   92DOPC   C2912621   5.450   1.427   4.934 -0.3245  0.8597 -0.1285
   92DOPC   H9R12622   5.426   1.535   4.938  1.4670  1.2761  1.0272
   92DOPC  C21012623   5.512   1.386   4.823 -0.7791  0.3857 -0.0941
   92DOPC  H10R12624   5.490   1.441   4.731 -3.0479  0.8681  0.6731
   92DOPC  C21112625   5.588   1.259   4.808 -1.0183  0.1082  0.0566
   92DOPC  H11R12626   5.531   1.170   4.841 -0.0096 -1.3894 -2.0346
   92DOPC  H11S12627   5.681   1.260   4.869 -1.4435  3.0369  0.7992
   92DOPC  C21212628   5.620   1.230   4.660 -0.5085 -0.7940 -0.0774
   92DOPC  H12R12629   5.697   1.149   4.660  0.6912  0.3088  1.2782
   92DOPC  H12S12630   5.659   1.320   4.608 -2.0694 -0.6174 -1.0054
   92DOPC  C21312631   5.485   1.188   4.586  0.1921 -1.0415  0.3793
   92DOPC  H13R12632   5.407   1.267   4.586 -0.5867 -1.7752  1.5116
   92DOPC  H13S12633   5.441   1.100   4.637 -0.3125 -0.9703  0.0783
   92DOPC  C21412634   5.506   1.154   4.442 -0.4448 -0.2422 -0.2031
   92DOPC  H14R12635   5.420   1.093   4.404  0.4357 -1.0878 -0.8917
   92DOPC  H14S12636   5.575   1.067   4.439 -1.5642 -1.1619 -0.3419
   92DOPC  C21512637   5.543   1.264   4.351 -0.7346  0.2659  0.3552
   92DOPC  H15R12638   5.629   1.308   4.407 -1.6524 -0.7889  2.7437
   92DOPC  H15S12639   5.459   1.331   4.322  0.8970  1.4882 -1.8187
   92DOPC  C21612640   5.611   1.220   4.216  0.4640  0.0179 -0.0173
   92DOPC  H16R12641   5.694   1.149   4.236  0.2938 -0.9946 -2.5388
   92DOPC  H16S12642   5.658   1.298   4.152  0.9158  0.2667  0.6073
   92DOPC  C21712643   5.510   1.140   4.123 -0.0952 -0.2139 -0.1702
   92DOPC  H17R12644   5.413   1.193   4.119 -0.9796 -1.7618 -0.2177
   92DOPC  H17S12645   5.495   1.035   4.158 -1.4030 -1.0269 -2.8334
   92DOPC  C21812646   5.564   1.118   3.975 -0.0390 -0.7319  0.0802
   92DOPC  H18R12647   5.593   1.215   3.930 -1.2334 -0.1782  0.4480
   92DOPC  H18S12648   5.490   1.069   3.908  0.3227 -2.7927  1.1065
   92DOPC  H18T12649   5.655   1.056   3.984  1.2022  0.7096 -1.7554
   92DOPC   C3312650   4.557   1.218   5.276 -0.7364 -0.2835 -0.6154
   92DOPC   H3X12651   4.667   1.206   5.287 -0.5132  2.1499  0.6080
   92DOPC   H3Y12652   4.523   1.318   5.312  1.4062  0.3117 -0.0874
   92DOPC   C3412653   4.524   1.211   5.133 -0.8356 -0.3761  1.0188
   92DOPC   H4X12654   4.413   1.214   5.123 -0.7576  0.5335  0.2709
   92DOPC   H4Y12655   4.569   1.118   5.094 -0.4552  0.0927  0.3079
   92DOPC   C3512656   4.593   1.322   5.048  0.9428 -0.5926 -0.3065
   92DOPC   H5X12657   4.703   1.321   5.058  1.2342  1.9763 -2.1096
   92DOPC   H5Y12658   4.558   1.420   5.090  1.8996 -1.1706  1.9947
   92DOPC   C3612659   4.551   1.311   4.901 -0.4716 -0.0351 -0.1863
   92DOPC   H6X12660   4.588   1.219   4.850  4.1888 -0.3054  3.0591
   92DOPC   H6Y12661   4.441   1.305   4.916 -0.2105 -0.4404  1.7787
   92DOPC   C3712662   4.582   1.423   4.803 -0.5252  0.3216  0.8949
   92DOPC   H7X12663   4.561   1.524   4.845 -1.4681  0.9465 -0.9473
   92DOPC   H7Y12664   4.689   1.433   4.779 -0.7969 -0.5287 -0.8158
   92DOPC   C3812665   4.502   1.403   4.679  0.5778 -0.0677  0.8326
   92DOPC   H8X12666   4.478   1.510   4.659  0.9835 -0.0236  0.5535
   92DOPC   H8Y12667   4.405   1.350   4.686 -0.1878  1.3146  1.0668
   92DOPC   C3912668   4.559   1.338   4.557  0.1825 -0.0367 -0.6634
   92DOPC   H9X12669   4.535   1.230   4.559  0.7200 -0.1523 -0.0698
   92DOPC  C31012670   4.628   1.388   4.453  0.3422  0.1296 -0.0302
   92DOPC  H10X12671   4.656   1.324   4.367 -1.5666 -0.6563 -0.1059
   92DOPC  C31112672   4.665   1.532   4.431 -0.5363 -0.0927 -0.5170
   92DOPC  H11X12673   4.765   1.520   4.383 -0.2749 -2.1813  0.4560
   92DOPC  H11Y12674   4.675   1.599   4.519 -2.2406 -0.3162 -0.1175
   92DOPC  C31212675   4.576   1.616   4.342  0.8324 -0.2116 -0.1046
   92DOPC  H12X12676   4.484   1.643   4.398 -0.1014 -1.5855 -0.9387
   92DOPC  H12Y12677   4.555   1.554   4.253  1.1031  0.7242 -0.8362
   92DOPC  C31312678   4.638   1.743   4.280 -0.1151 -0.6436  0.2567
   92DOPC  H13X12679   4.639   1.827   4.352 -1.9170  0.2527 -0.6844
   92DOPC  H13Y12680   4.745   1.719   4.263 -0.6712 -1.3753 -2.7643
   92DOPC  C31412681   4.582   1.798   4.153 -1.1153 -0.6213  0.1300
   92DOPC  H14X12682   4.619   1.897   4.119  0.5421 -1.5566 -0.9332
   92DOPC  H14Y12683   4.611   1.724   4.076  2.0977  0.1550  0.4482
   92DOPC  C31512684   4.427   1.816   4.167 -0.3650  1.0175 -0.2055
   92DOPC  H15X12685   4.412   1.859   4.269 -0.7311  1.8873 -0.6175
   92DOPC  H15Y12686   4.387   1.712   4.163  0.6133  0.6405 -0.3381
   92DOPC  C31612687   4.368   1.908   4.054  0.8032 -0.5529  0.2144
   92DOPC  H16X12688   4.257   1.910   4.050  0.8141  1.9584 -1.1755
   92DOPC  H16Y12689   4.383   2.014   4.083 -0.5322  0.1626 -1.5102
   92DOPC  C31712690   4.424   1.882   3.914 -0.7907 -0.0618  0.5091
   92DOPC  H17X12691   4.533   1.902   3.910 -0.7909 -0.2146 -0.9068
   92DOPC  H17Y12692   4.414   1.775   3.887 -0.1886  0.1954 -0.8192
   92DOPC  C31812693   4.350   1.958   3.803 -0.1731 -0.1345 -0.2388
   92DOPC  H18X12694   4.346   2.068   3.820  1.8536 -0.0857  0.2524
   92DOPC  H18Y12695   4.395   1.946   3.702  0.2418  1.0013 -0.2070
   92DOPC  H18Z12696   4.251   1.909   3.811  0.2897 -1.1628 -0.5630
   93DOPC     N12697   3.191   2.699   5.847  0.1043 -0.1847 -0.2707
   93DOPC   C1212698   3.115   2.789   5.749 -0.6079 -0.3397  0.2217
   93DOPC  H12A12699   3.171   2.880   5.735 -1.3174 -0.2316 -2.5031
   93DOPC  H12B12700   3.027   2.830   5.798 -0.2042  2.2629 -1.0801
   93DOPC   C1312701   3.235   2.797   5.955  0.1869  0.2905  0.2784
   93DOPC  H13A12702   3.289   2.746   6.034 -0.5310 -0.6648  0.1756
   93DOPC  H13B12703   3.291   2.882   5.921 -0.2458  0.2379 -0.6028
   93DOPC  H13C12704   3.149   2.843   6.002  0.3238  0.5761  0.2475
   93DOPC   C1412705   3.310   2.637   5.790 -0.5178 -0.4688  0.2269
   93DOPC  H14A12706   3.291   2.577   5.702  2.2501  0.5640 -1.1861
   93DOPC  H14B12707   3.392   2.702   5.764  0.0126 -0.5877  1.5272
   93DOPC  H14C12708   3.365   2.584   5.867 -0.2810  1.6513  1.6135
   93DOPC   C1512709   3.102   2.589   5.905  0.5608 -0.7070 -0.4716
   93DOPC  H15A12710   3.142   2.549   5.997 -0.9283 -0.2197  0.4327
   93DOPC  H15B12711   3.099   2.512   5.830 -0.1216 -3.5761  2.2759
   93DOPC  H15C12712   3.002   2.622   5.931  0.2058 -0.2223 -2.3306
   93DOPC   C1112713   3.077   2.726   5.613  0.4777  0.1852  0.0953
   93DOPC  H11A12714   3.063   2.815   5.549  1.7428 -0.0485 -0.5498
   93DOPC  H11B12715   3.173   2.682   5.578  1.0375  1.5092 -0.1060
   93DOPC     P12716   2.821   2.673   5.655 -0.0493  0.1569 -0.3318
   93DOPC   O1312717   2.762   2.760   5.547  0.0862 -0.0103 -0.4483
   93DOPC   O1412718   2.824   2.736   5.791  0.4198 -0.2799  0.3901
   93DOPC   O1212719   2.970   2.630   5.616 -0.0018  0.1277  0.6241
   93DOPC   O1112720   2.732   2.544   5.648 -0.0872  0.4605  0.2218
   93DOPC    C112721   2.779   2.421   5.587 -0.1879 -0.4948 -0.1497
   93DOPC    HA12722   2.709   2.342   5.621 -2.2974  1.6783  0.8835
   93DOPC    HB12723   2.879   2.393   5.626  0.7964 -0.0274 -2.1961
   93DOPC    C212724   2.791   2.428   5.433 -0.3959 -0.1614  0.9971
   93DOPC    HS12725   2.868   2.501   5.401 -1.5552  0.5795 -0.1816
   93DOPC   O2112726   2.663   2.449   5.380  1.1562 -0.4645  0.4705
   93DOPC   C2112727   2.651   2.525   5.270  0.2094 -0.0425 -0.0903
   93DOPC   O2212728   2.740   2.557   5.194  0.1569 -0.4075 -0.6326
   93DOPC   C2212729   2.505   2.569   5.261  0.4703  0.5035  0.0770
   93DOPC   H2R12730   2.502   2.670   5.307  1.9027  0.4937  0.2246
   93DOPC   H2S12731   2.433   2.499   5.310 -2.0613  2.5059 -0.5717
   93DOPC    C312732   2.843   2.289   5.391  0.0308 -0.7504 -0.2060
   93DOPC    HX12733   2.764   2.214   5.413 -1.5636  0.9928  0.2657
   93DOPC    HY12734   2.929   2.267   5.458 -1.2519 -1.1533  1.3794
   93DOPC   O3112735   2.877   2.288   5.249 -0.2081  0.5783 -0.5376
   93DOPC   C3112736   2.993   2.353   5.221  0.4019  0.4851 -0.0774
   93DOPC   O3212737   3.081   2.386   5.298  0.3884  0.2905 -0.1871
   93DOPC   C3212738   2.995   2.364   5.067  0.5532 -0.2188 -0.0313
   93DOPC   H2X12739   3.031   2.264   5.032  0.1217 -0.6159  0.6295
   93DOPC   H2Y12740   2.890   2.380   5.034  0.2617  1.3118  1.5292
   93DOPC   C2312741   2.467   2.577   5.106  0.2676  0.2076  0.1873
   93DOPC   H3R12742   2.518   2.493   5.056 -0.9652 -1.2174  1.2483
   93DOPC   H3S12743   2.493   2.677   5.065  0.8610  1.2556  2.8658
   93DOPC   C2412744   2.316   2.565   5.087 -0.1270 -0.6552 -0.1214
   93DOPC   H4R12745   2.265   2.647   5.141 -0.5469 -0.1930 -1.1828
   93DOPC   H4S12746   2.269   2.479   5.140 -2.8163  1.9261  2.0381
   93DOPC   C2512747   2.261   2.561   4.942  0.0730  0.0362 -0.5548
   93DOPC   H5R12748   2.152   2.543   4.950  0.5234 -3.7405 -0.8717
   93DOPC   H5S12749   2.302   2.483   4.874  0.2423  0.0191 -0.4340
   93DOPC   C2612750   2.275   2.694   4.869 -0.1734 -0.1499 -0.1360
   93DOPC   H6R12751   2.373   2.712   4.818  0.3090 -0.4916  0.6507
   93DOPC   H6S12752   2.278   2.775   4.945  2.0112 -0.8775  0.6390
   93DOPC   C2712753   2.160   2.707   4.766 -0.5153 -0.2455 -1.0925
   93DOPC   H7R12754   2.066   2.708   4.825 -0.4094  0.1970 -0.9246
   93DOPC   H7S12755   2.165   2.616   4.703  2.4396 -0.4689 -0.6748
   93DOPC   C2812756   2.170   2.844   4.692  0.0124  0.2952  0.0094
   93DOPC   H8R12757   2.165   2.927   4.765  0.4451  0.7951 -0.5218
   93DOPC   H8S12758   2.081   2.855   4.627  0.8544  3.1147 -0.8000
   93DOPC   C2912759   2.295   2.868   4.608 -0.3112 -0.2896 -0.1359
   93DOPC   H9R12760   2.381   2.914   4.659  0.2224 -0.3598 -0.9474
   93DOPC  C21012761   2.303   2.858   4.477  0.6469  0.7570 -0.1443
   93DOPC  H10R12762   2.397   2.882   4.426  1.0529 -1.7707 -0.7352
   93DOPC  C21112763   2.201   2.789   4.389 -0.0504  0.1042 -0.4118
   93DOPC  H11R12764   2.126   2.731   4.447  0.2596  0.5883  0.4961
   93DOPC  H11S12765   2.244   2.714   4.321  0.6994 -0.0704  0.2408
   93DOPC  C21212766   2.123   2.878   4.296 -0.0046 -0.0143  0.1734
   93DOPC  H12R12767   2.196   2.947   4.248 -2.4069  1.5296 -1.4816
   93DOPC  H12S12768   2.053   2.946   4.350  0.5556 -0.7009  1.8326
   93DOPC  C21312769   2.058   2.798   4.180 -0.1460  0.1131  0.0963
   93DOPC  H13R12770   2.023   2.700   4.220  0.0203  0.0731  0.1453
   93DOPC  H13S12771   2.141   2.771   4.112 -0.3318  2.5165 -1.2092
   93DOPC  C21412772   1.951   2.878   4.108 -0.2479  0.0903  0.2511
   93DOPC  H14R12773   1.917   2.826   4.016 -2.4290  1.1665  0.3838
   93DOPC  H14S12774   1.995   2.966   4.058 -0.3952 -0.2108 -0.4166
   93DOPC  C21512775   1.835   2.906   4.201 -0.2287  0.4400  0.1220
   93DOPC  H15R12776   1.868   2.939   4.301  0.9645  0.1223 -0.1549
   93DOPC  H15S12777   1.772   2.815   4.215  0.4586  0.0326  0.5869
   93DOPC  C21612778   1.733   3.007   4.148  0.1679  0.2561  0.2181
   93DOPC  H16R12779   1.681   2.976   4.055  0.0948  1.4910 -0.1734
   93DOPC  H16S12780   1.790   3.098   4.118 -0.9865  1.0888  0.4839
   93DOPC  C21712781   1.633   3.052   4.247  0.1050  0.3818  0.7120
   93DOPC  H17R12782   1.680   3.096   4.338 -1.7557  2.1813  0.8932
   93DOPC  H17S12783   1.579   2.961   4.279 -0.3832  0.4499  0.0970
   93DOPC  C21812784   1.530   3.161   4.195  0.9012  0.7524  0.8715
   93DOPC  H18R12785   1.587   3.254   4.175  0.8561  1.3844  3.3741
   93DOPC  H18S12786   1.439   3.170   4.259 -0.1160 -1.1507 -0.2100
   93DOPC  H18T12787   1.503   3.106   4.102  0.8893  0.2411  1.1730
   93DOPC   C3312788   3.092   2.472   5.016  0.3574 -0.5121  0.6820
   93DOPC   H3X12789   3.174   2.481   5.091  0.5651 -1.0995  0.5309
   93DOPC   H3Y12790   3.044   2.572   5.012 -0.6702 -1.0462 -1.1311
   93DOPC   C3412791   3.153   2.441   4.884 -0.2874 -0.4395  0.3775
   93DOPC   H4X12792   3.222   2.359   4.915  2.4265  1.8311  0.7318
   93DOPC   H4Y12793   3.229   2.515   4.850 -0.2439 -0.3367  0.6975
   93DOPC   C3512794   3.061   2.411   4.767  0.1410 -0.1118  0.1255
   93DOPC   H5X12795   2.999   2.501   4.746  1.1296  0.9237  1.4822
   93DOPC   H5Y12796   2.992   2.332   4.805 -0.6131  0.7105  0.5047
   93DOPC   C3612797   3.116   2.349   4.641 -0.0457 -0.0970  0.4247
   93DOPC   H6X12798   3.172   2.256   4.666  2.9809  2.3892  4.1612
   93DOPC   H6Y12799   3.020   2.331   4.590 -1.2776  2.9696  1.4097
   93DOPC   C3712800   3.208   2.446   4.561  0.3273 -0.0967 -0.0768
   93DOPC   H7X12801   3.134   2.515   4.516  0.7604  2.2547  2.5800
   93DOPC   H7Y12802   3.273   2.509   4.625  1.5451  0.2614 -1.6249
   93DOPC   C3812803   3.300   2.380   4.457 -0.2266 -0.1617 -0.5104
   93DOPC   H8X12804   3.363   2.306   4.510 -0.6333  0.3353  0.6928
   93DOPC   H8Y12805   3.384   2.445   4.425  0.1152 -0.7837 -0.9024
   93DOPC   C3912806   3.217   2.325   4.348  0.0013 -0.1327 -0.0297
   93DOPC   H9X12807   3.229   2.215   4.346 -1.2594 -0.3005  0.4228
   93DOPC  C31012808   3.145   2.382   4.251  0.1545  0.1393 -0.2434
   93DOPC  H10X12809   3.101   2.325   4.168 -1.2045  0.6273  0.1109
   93DOPC  C31112810   3.143   2.533   4.232 -0.4738 -0.3175  0.4024
   93DOPC  H11X12811   3.234   2.590   4.258  1.3245 -1.6464 -2.4992
   93DOPC  H11Y12812   3.056   2.565   4.293 -0.8885 -2.5834  1.1120
   93DOPC  C31212813   3.122   2.572   4.082 -0.5745 -0.0355 -0.4023
   93DOPC  H12X12814   3.197   2.516   4.022  2.4143 -2.0762  4.5872
   93DOPC  H12Y12815   3.135   2.682   4.072  0.8536 -0.2677 -1.4904
   93DOPC  C31312816   2.981   2.531   4.028 -0.3964  0.6166 -0.1612
   93DOPC  H13X12817   2.977   2.420   4.022  1.2812  0.4361  1.2702
   93DOPC  H13Y12818   2.901   2.553   4.102 -0.8827 -0.9024 -0.2144
   93DOPC  C31412819   2.946   2.583   3.887  0.1517  0.0124  0.3270
   93DOPC  H14X12820   3.023   2.558   3.810 -1.0462  2.4300 -1.8341
   93DOPC  H14Y12821   2.856   2.529   3.851  1.1514 -0.9818 -0.7693
   93DOPC  C31512822   2.913   2.737   3.882 -0.8645  0.0612  0.0831
   93DOPC  H15X12823   2.922   2.764   3.775  0.2383 -2.2500 -0.4708
   93DOPC  H15Y12824   2.993   2.795   3.934 -0.7185  0.3117 -0.4135
   93DOPC  C31612825   2.772   2.771   3.934  0.3522 -0.7818  0.2263
   93DOPC  H16X12826   2.714   2.691   3.883  1.3228  0.2765 -2.7802
   93DOPC  H16Y12827   2.767   2.761   4.044  2.3110  1.4212  0.5862
   93DOPC  C31712828   2.718   2.912   3.904 -0.4313  0.1847  0.0556
   93DOPC  H17X12829   2.796   2.988   3.927 -1.0656  1.0323 -0.5499
   93DOPC  H17Y12830   2.695   2.928   3.797  0.6249  1.5744  0.0058
   93DOPC  C31812831   2.598   2.940   3.992  0.7185 -0.0337 -0.2121
   93DOPC  H18X12832   2.614   2.923   4.101  0.2263 -4.5641 -0.6569
   93DOPC  H18Y12833   2.554   3.042   3.987  2.0074  0.5407 -0.2018
   93DOPC  H18Z12834   2.513   2.874   3.965  0.6207 -0.4923  1.1144
   94DOPC     N12835   9.238   9.961   6.261 -0.4328  0.4114  0.3021
   94DOPC   C1212836   9.220   9.829   6.173 -0.8284 -0.2232  0.1396
   94DOPC  H12A12837   9.114   9.807   6.167 -1.0667  0.4373  1.5945
   94DOPC  H12B12838   9.262   9.752   6.236  1.1689  0.1632 -0.6354
   94DOPC   C1312839   9.147  10.061   6.194  0.5658  0.3630  0.5543
   94DOPC  H13A12840   9.048  10.018   6.192  1.3250 -1.5534  1.6731
   94DOPC  H13B12841   9.149  10.162   6.233 -0.5750  0.9600 -0.8551
   94DOPC  H13C12842   9.171  10.061   6.089 -0.3626  1.5376  0.3169
   94DOPC   C1412843   9.379  10.008   6.272  0.6871 -0.0588 -0.0589
   94DOPC  H14A12844   9.444   9.947   6.334  1.6267  0.6049 -0.3697
   94DOPC  H14B12845   9.417  10.013   6.171  0.2007  0.6929 -0.2138
   94DOPC  H14C12846   9.377  10.109   6.309 -1.6083  0.4983 -1.4785
   94DOPC   C1512847   9.180   9.927   6.397 -0.4663 -0.6863 -0.8800
   94DOPC  H15A12848   9.163  10.011   6.462 -2.4967 -0.9619 -0.9994
   94DOPC  H15B12849   9.243   9.855   6.447 -0.5756 -0.2050 -0.0453
   94DOPC  H15C12850   9.082   9.882   6.391 -1.6054  1.6909 -1.4189
   94DOPC   C1112851   9.278   9.840   6.034 -0.9317 -0.4048  0.1821
   94DOPC  H11A12852   9.387   9.860   6.029 -1.4511  3.4238  1.3602
   94DOPC  H11B12853   9.284   9.738   5.988 -0.5345 -0.3878  0.1987
   94DOPC     P12854   9.064   9.877   5.895  0.1792  0.0642 -0.2341
   94DOPC   O1312855   8.969   9.993   5.886 -0.2313 -0.1602 -0.0785
   94DOPC   O1412856   9.015   9.762   5.976 -0.0172 -0.0682  0.0176
   94DOPC   O1212857   9.204   9.927   5.955 -0.4538 -0.1987 -0.1638
   94DOPC   O1112858   9.104   9.828   5.752  0.2868 -0.3799 -0.1715
   94DOPC    C112859   9.189   9.911   5.664 -0.1439  0.0569  0.0088
   94DOPC    HA12860   9.293   9.879   5.685 -0.7437 -0.9606  1.6511
   94DOPC    HB12861   9.184  10.019   5.689 -0.0994  0.2501 -0.8073
   94DOPC    C212862   9.153   9.891   5.517 -0.2603  0.1306  0.0273
   94DOPC    HS12863   9.234   9.923   5.447 -0.4655  0.2302 -0.1651
   94DOPC   O2112864   9.031   9.959   5.494 -0.2088 -0.4143  0.5721
   94DOPC   C2112865   9.041  10.088   5.486 -0.2293 -0.8864  0.0122
   94DOPC   O2212866   9.140  10.160   5.484 -0.2925 -0.3317 -0.2086
   94DOPC   C2212867   8.901  10.149   5.476  0.3595 -0.1239 -0.5820
   94DOPC   H2R12868   8.903  10.260   5.473 -0.4490 -0.1150 -1.0851
   94DOPC   H2S12869   8.854  10.123   5.574  2.2908 -1.6052  0.0210
   94DOPC    C312870   9.128   9.745   5.477 -1.5114 -0.0336 -0.2651
   94DOPC    HX12871   9.050   9.705   5.545 -0.0389 -0.6476  1.1216
   94DOPC    HY12872   9.218   9.685   5.502 -0.3241  0.7180 -2.4690
   94DOPC   O3112873   9.096   9.729   5.345  0.0584  0.2553  0.5541
   94DOPC   C3112874   8.969   9.719   5.306 -0.2073  0.1219  0.4138
   94DOPC   O3212875   8.873   9.745   5.381  0.0908 -0.4364  0.0213
   94DOPC   C3212876   8.952   9.682   5.161 -0.3445  0.0811  0.0620
   94DOPC   H2X12877   9.056   9.686   5.120 -0.5085  0.3488 -0.3356
   94DOPC   H2Y12878   8.911   9.580   5.151 -1.0052  0.5000 -2.1522
   94DOPC   C2312879   8.812  10.094   5.361 -0.5554  0.2398  0.8817
   94DOPC   H3R12880   8.710  10.103   5.402 -0.8967 -0.2100  0.1436
   94DOPC   H3S12881   8.830   9.985   5.348  0.8334  0.5983 -0.6747
   94DOPC   C2412882   8.826  10.183   5.231  0.2589 -0.2188 -1.0257
   94DOPC   H4R12883   8.931  10.178   5.196  0.5106 -1.6738 -0.1309
   94DOPC   H4S12884   8.802  10.284   5.271 -0.3378 -1.7926  3.0702
   94DOPC   C2512885   8.739  10.145   5.110 -0.2249 -0.1514 -0.0772
   94DOPC   H5R12886   8.631  10.136   5.137 -1.0493  3.3687 -1.6604
   94DOPC   H5S12887   8.760  10.044   5.068 -1.3229 -0.9262  1.1572
   94DOPC   C2612888   8.749  10.260   5.000  0.7335 -0.2994 -0.3068
   94DOPC   H6R12889   8.821  10.222   4.924 -1.3855 -0.7315 -2.2214
   94DOPC   H6S12890   8.794  10.348   5.050  0.6509 -0.6680  0.4254
   94DOPC   C2712891   8.614  10.290   4.934 -0.0464  0.0604 -0.0836
   94DOPC   H7R12892   8.535  10.310   5.010  0.7793 -2.8630  1.7267
   94DOPC   H7S12893   8.586  10.203   4.870 -0.5745  1.0617 -1.2427
   94DOPC   C2812894   8.614  10.405   4.839  0.5924 -0.1079  0.4843
   94DOPC   H8R12895   8.535  10.382   4.764  0.5429  2.2358 -0.2483
   94DOPC   H8S12896   8.710  10.409   4.783  0.5993  1.0765  0.5607
   94DOPC   C2912897   8.586  10.538   4.898  0.2323 -0.1260 -0.0823
   94DOPC   H9R12898   8.654  10.567   4.980 -2.4036  1.5244  1.7026
   94DOPC  C21012899   8.479  10.625   4.881 -0.2088 -0.2768  0.2668
   94DOPC  H10R12900   8.497  10.726   4.921  0.5731  0.6134 -2.1562
   94DOPC  C21112901   8.348  10.610   4.810 -0.5300 -0.1265 -0.2049
   94DOPC  H11R12902   8.279  10.697   4.817  1.2526  1.4362 -1.2602
   94DOPC  H11S12903   8.304  10.526   4.868  1.7592 -0.5842  1.0161
   94DOPC  C21212904   8.349  10.559   4.663 -0.1074 -0.0575 -0.3548
   94DOPC  H12R12905   8.375  10.451   4.659  1.6809  0.3500 -0.7861
   94DOPC  H12S12906   8.433  10.610   4.611  1.6799 -1.6094  0.8438
   94DOPC  C21312907   8.214  10.577   4.597 -0.5956  0.4642 -0.1544
   94DOPC  H13R12908   8.136  10.517   4.649 -1.7881  3.4794  1.8301
   94DOPC  H13S12909   8.232  10.542   4.493  0.7663  0.6758 -0.0068
   94DOPC  C21412910   8.184  10.725   4.580 -0.3457 -0.5258 -0.3345
   94DOPC  H14R12911   8.283  10.776   4.576 -0.3838 -0.0553  2.8032
   94DOPC  H14S12912   8.138  10.783   4.662  0.2652  0.6893 -0.8313
   94DOPC  C21512913   8.109  10.756   4.453  0.3440 -0.2253 -0.4867
   94DOPC  H15R12914   8.003  10.722   4.450  0.0111  0.7016  0.4429
   94DOPC  H15S12915   8.169  10.707   4.373 -1.1057 -1.2088 -1.0227
   94DOPC  C21612916   8.111  10.910   4.421 -0.2553 -0.0968 -0.6544
   94DOPC  H16R12917   8.221  10.926   4.426  0.2184 -2.8054 -0.5995
   94DOPC  H16S12918   8.047  10.956   4.498 -1.6262  0.1942 -1.9185
   94DOPC  C21712919   8.050  10.944   4.284  0.0484  0.6045  0.1927
   94DOPC  H17R12920   7.940  10.935   4.300  0.3294  0.0700  2.0902
   94DOPC  H17S12921   8.069  10.867   4.207 -0.1429  1.0549 -0.3074
   94DOPC  C21812922   8.085  11.084   4.226 -0.2375 -0.4708 -0.4121
   94DOPC  H18R12923   8.046  11.157   4.301  2.5980  1.6232 -0.8408
   94DOPC  H18S12924   8.043  11.107   4.126 -0.9804  0.9987  0.2173
   94DOPC  H18T12925   8.194  11.084   4.245 -0.3937 -1.7621  0.7028
   94DOPC   C3312926   8.847   9.770   5.086 -0.2619  0.4157 -0.6145
   94DOPC   H3X12927   8.867   9.878   5.099  2.3347 -0.0848  0.0721
   94DOPC   H3Y12928   8.752   9.750   5.141  0.8059 -1.4799  0.6845
   94DOPC   C3412929   8.835   9.723   4.936 -0.0684 -0.8124 -0.6829
   94DOPC   H4X12930   8.808   9.616   4.928 -1.4440 -0.7192  1.6323
   94DOPC   H4Y12931   8.937   9.732   4.893 -0.5971  0.8809 -1.6855
   94DOPC   C3512932   8.720   9.797   4.865 -0.2030  0.1712  0.2138
   94DOPC   H5X12933   8.731   9.902   4.900 -2.5702  0.7721 -0.6790
   94DOPC   H5Y12934   8.618   9.762   4.892 -0.0239 -0.5197  0.0338
   94DOPC   C3612935   8.743   9.791   4.708  0.1215  0.6806  0.3685
   94DOPC   H6X12936   8.655   9.832   4.655 -0.4576 -2.4995 -1.3610
   94DOPC   H6Y12937   8.836   9.843   4.678  1.0041 -0.3165  1.2697
   94DOPC   C3712938   8.742   9.642   4.654  0.4165  0.9610 -0.0108
   94DOPC   H7X12939   8.841   9.603   4.686  0.2398 -0.9770 -1.5970
   94DOPC   H7Y12940   8.655   9.585   4.694 -0.3525  2.3416  0.3232
   94DOPC   C3812941   8.744   9.635   4.493 -0.2449 -0.0254  0.1202
   94DOPC   H8X12942   8.669   9.707   4.454  1.2041  2.1069  1.1061
   94DOPC   H8Y12943   8.713   9.536   4.454 -0.0500 -0.0226 -0.0370
   94DOPC   C3912944   8.881   9.677   4.444 -0.2770 -0.4838  1.1443
   94DOPC   H9X12945   8.908   9.783   4.438  0.2798 -0.6171  1.1904
   94DOPC  C31012946   8.985   9.592   4.417  0.3839  0.3521 -0.2213
   94DOPC  H10X12947   9.091   9.619   4.404  0.3205  0.1320 -1.2602
   94DOPC  C31112948   8.979   9.443   4.419  0.3295  0.0519  0.5538
   94DOPC  H11X12949   8.993   9.412   4.313 -2.7473  0.7487 -0.1447
   94DOPC  H11Y12950   8.881   9.403   4.451  0.9759 -0.1034  2.4759
   94DOPC  C31212951   9.087   9.384   4.519  0.5505  1.2567  0.9522
   94DOPC  H12X12952   9.045   9.284   4.542 -0.2650  1.4616  0.4178
   94DOPC  H12Y12953   9.104   9.448   4.608  2.8998  0.2319  1.2890
   94DOPC  C31312954   9.228   9.363   4.466 -0.6613  0.1405  0.3867
   94DOPC  H13X12955   9.219   9.288   4.385  1.8518 -1.4791  1.4652
   94DOPC  H13Y12956   9.269   9.453   4.415  0.0260  0.6848  1.8089
   94DOPC  C31412957   9.331   9.302   4.564  0.4574  0.5875 -0.5346
   94DOPC  H14X12958   9.397   9.236   4.504 -0.1322 -2.1134  1.6187
   94DOPC  H14Y12959   9.390   9.387   4.606 -0.8881  1.8143 -1.0739
   94DOPC  C31512960   9.264   9.210   4.668  0.0500  0.0423  0.1026
   94DOPC  H15X12961   9.222   9.122   4.614 -0.2823  0.1074  0.2536
   94DOPC  H15Y12962   9.193   9.265   4.733 -0.9612 -0.1350 -0.8438
   94DOPC  C31612963   9.369   9.150   4.762 -0.8887 -0.4035 -0.1642
   94DOPC  H16X12964   9.425   9.080   4.696 -1.8228 -1.0667 -0.2862
   94DOPC  H16Y12965   9.442   9.225   4.799  0.6656  0.0476 -3.6785
   94DOPC  C31712966   9.307   9.067   4.874  0.0278 -0.2338 -0.3730
   94DOPC  H17X12967   9.253   9.142   4.936 -0.7690 -0.1580 -1.1437
   94DOPC  H17Y12968   9.227   8.998   4.838  0.7946 -1.4909  0.2579
   94DOPC  C31812969   9.410   8.995   4.966 -0.7889 -0.5714  0.4730
   94DOPC  H18X12970   9.462   8.918   4.905  0.9202  1.2421 -0.4794
   94DOPC  H18Y12971   9.481   9.070   5.008  0.3511 -0.5346 -1.4173
   94DOPC  H18Z12972   9.369   8.940   5.053  0.5518  1.3004  2.4163
   95DOPC     N12973   9.311   6.652   6.074  0.0526  0.7833  0.0100
   95DOPC   C1212974   9.394   6.623   5.961 -0.4846  0.1690 -0.0582
   95DOPC  H12A12975   9.452   6.540   5.996  0.9898  2.0192  2.1689
   95DOPC  H12B12976   9.460   6.709   5.955  0.9946 -0.8535  0.9672
   95DOPC   C1312977   9.236   6.780   6.057  0.1190 -0.0601 -0.2241
   95DOPC  H13A12978   9.304   6.857   6.022  1.2216 -0.2759  1.3484
   95DOPC  H13B12979   9.166   6.770   5.975  3.1969  1.8999 -3.4010
   95DOPC  H13C12980   9.183   6.810   6.146 -0.0068  0.6771 -0.5376
   95DOPC   C1412981   9.390   6.670   6.196 -0.1550 -0.0244 -0.4169
   95DOPC  H14A12982   9.330   6.730   6.263  1.2765  1.9243 -0.7943
   95DOPC  H14B12983   9.423   6.575   6.236  1.1105  0.2505 -0.7808
   95DOPC  H14C12984   9.477   6.733   6.186 -0.6234  0.4840 -1.3367
   95DOPC   C1512985   9.211   6.542   6.097 -0.5116 -0.0405 -0.3076
   95DOPC  H15A12986   9.142   6.535   6.015 -0.7632 -0.2100 -0.0816
   95DOPC  H15B12987   9.150   6.564   6.183 -1.5248 -1.8884 -0.5065
   95DOPC  H15C12988   9.256   6.444   6.105  0.3122  0.4579  2.0745
   95DOPC   C1112989   9.325   6.602   5.826 -0.1761 -0.2750 -0.5548
   95DOPC  H11A12990   9.394   6.537   5.769  1.0685 -0.6022  1.2304
   95DOPC  H11B12991   9.232   6.542   5.836  0.1724 -0.6191  0.8870
   95DOPC     P12992   9.388   6.795   5.660  0.1392  0.3055 -0.2259
   95DOPC   O1312993   9.508   6.833   5.731 -0.0439 -0.3692  0.7692
   95DOPC   O1412994   9.310   6.894   5.585  0.5197 -0.0191  0.2474
   95DOPC   O1212995   9.291   6.721   5.757  1.2299  0.3449 -0.2830
   95DOPC   O1112996   9.423   6.680   5.561 -0.5685  0.0784  0.1137
   95DOPC    C112997   9.310   6.613   5.507 -0.2480 -0.6600  0.1953
   95DOPC    HA12998   9.241   6.679   5.450 -0.6313 -1.0976  0.1350
   95DOPC    HB12999   9.256   6.551   5.582  1.7343 -0.3548  1.9439
   95DOPC    C213000   9.349   6.504   5.405  0.0879 -0.5264 -0.6459
   95DOPC    HS13001   9.427   6.438   5.447  0.3648 -0.2691 -0.7496
   95DOPC   O2113002   9.378   6.559   5.277 -0.4857 -0.1008 -0.1771
   95DOPC   C2113003   9.502   6.584   5.257 -0.5594  0.1758  0.3380
   95DOPC   O2213004   9.592   6.556   5.338 -0.3234 -0.0075  0.0144
   95DOPC   C2213005   9.527   6.672   5.136  0.2254  0.3218 -0.0022
   95DOPC   H2R13006   9.591   6.759   5.161  1.5290 -0.5339 -0.3066
   95DOPC   H2S13007   9.429   6.713   5.101  0.2642 -1.6960 -2.7810
   95DOPC    C313008   9.217   6.424   5.374  0.0487 -0.8106 -0.0489
   95DOPC    HX13009   9.150   6.496   5.323  0.7814 -0.1708 -0.1137
   95DOPC    HY13010   9.178   6.381   5.469  0.8736  0.3684  0.8504
   95DOPC   O3113011   9.247   6.322   5.271  0.4916 -0.5372  0.3232
   95DOPC   C3113012   9.206   6.193   5.285 -0.1843 -0.2139 -0.3841
   95DOPC   O3213013   9.130   6.154   5.367  0.2118  0.0551 -0.7221
   95DOPC   C3213014   9.282   6.115   5.183  0.6202  0.6089 -0.3285
   95DOPC   H2X13015   9.291   6.172   5.088  0.7981  1.7506  0.3502
   95DOPC   H2Y13016   9.385   6.104   5.224  0.2555  1.5893  0.9006
   95DOPC   C2313017   9.574   6.584   5.023  0.1096  0.1837  0.9365
   95DOPC   H3R13018   9.651   6.512   5.055  2.9415  2.6280  0.1008
   95DOPC   H3S13019   9.625   6.648   4.947 -1.0600  2.1536  1.7111
   95DOPC   C2413020   9.450   6.511   4.948 -0.1659  0.0930  0.6234
   95DOPC   H4R13021   9.387   6.594   4.910  1.6032  0.5540 -1.5099
   95DOPC   H4S13022   9.397   6.458   5.030 -0.3793 -0.2325  0.2732
   95DOPC   C2513023   9.497   6.418   4.831 -0.6244  0.0886 -0.9130
   95DOPC   H5R13024   9.409   6.363   4.790  0.8784 -3.3246  0.0522
   95DOPC   H5S13025   9.569   6.346   4.876  0.5940  2.2277  0.7450
   95DOPC   C2613026   9.579   6.481   4.714 -0.1051  0.2505  0.3376
   95DOPC   H6R13027   9.671   6.529   4.754  1.3749 -1.1038 -1.2859
   95DOPC   H6S13028   9.516   6.568   4.686 -0.8062 -0.1828  0.5457
   95DOPC   C2713029   9.618   6.384   4.601 -0.5014 -0.1979 -0.2641
   95DOPC   H7R13030   9.523   6.349   4.556  0.6070 -0.8180 -2.2562
   95DOPC   H7S13031   9.673   6.298   4.644  1.0334  0.7086 -0.3222
   95DOPC   C2813032   9.692   6.463   4.496 -0.5069  0.5651  0.7525
   95DOPC   H8R13033   9.784   6.505   4.542  0.8941  0.5361 -1.8362
   95DOPC   H8S13034   9.635   6.554   4.468 -1.2814  0.0797  0.7165
   95DOPC   C2913035   9.737   6.377   4.374  0.1937 -0.7475 -0.1000
   95DOPC   H9R13036   9.774   6.276   4.397  2.6212  0.3917  1.3500
   95DOPC  C21013037   9.741   6.423   4.249  0.3394  0.7426 -0.0631
   95DOPC  H10R13038   9.773   6.356   4.167 -1.0644  0.1668 -0.1714
   95DOPC  C21113039   9.693   6.559   4.204 -0.4812  0.5840 -0.7434
   95DOPC  H11R13040   9.773   6.596   4.136  2.2516 -2.1425  0.7215
   95DOPC  H11S13041   9.696   6.629   4.290 -1.0177 -0.0633 -0.1868
   95DOPC  C21213042   9.549   6.554   4.150 -0.1524 -0.1009 -0.5449
   95DOPC  H12R13043   9.479   6.517   4.228 -0.0061  1.2117  0.2476
   95DOPC  H12S13044   9.544   6.491   4.059  0.5140  0.6495 -1.1139
   95DOPC  C21313045   9.494   6.698   4.130  0.0224 -0.1500 -0.1266
   95DOPC  H13R13046   9.547   6.748   4.046  1.5081 -0.2633  0.7236
   95DOPC  H13S13047   9.512   6.751   4.226  1.0940 -0.0798 -0.3536
   95DOPC  C21413048   9.347   6.711   4.094  0.4997 -0.0106  0.2034
   95DOPC  H14R13049   9.324   6.819   4.080 -2.1257 -0.3712  1.1258
   95DOPC  H14S13050   9.285   6.664   4.173 -1.3408  2.8728  0.6311
   95DOPC  C21513051   9.307   6.639   3.965 -0.0572  0.0021  0.0843
   95DOPC  H15R13052   9.333   6.531   3.967  0.4216  0.1275  1.0347
   95DOPC  H15S13053   9.364   6.686   3.882  0.4335  0.7383  0.8201
   95DOPC  C21613054   9.153   6.639   3.935  0.7029 -0.2868 -0.2898
   95DOPC  H16R13055   9.105   6.740   3.933 -0.4404 -0.6797  2.5815
   95DOPC  H16S13056   9.097   6.578   4.009  0.9486 -1.1241 -0.7880
   95DOPC  C21713057   9.129   6.564   3.806  0.5018 -0.4581 -0.0271
   95DOPC  H17R13058   9.157   6.456   3.812  0.4160 -0.6876 -2.6058
   95DOPC  H17S13059   9.195   6.609   3.729 -2.3166  1.1033 -1.6995
   95DOPC  C21813060   8.991   6.579   3.749 -0.0896  0.5268  0.4704
   95DOPC  H18R13061   8.994   6.562   3.639  2.5448  1.4839  0.3137
   95DOPC  H18S13062   8.950   6.681   3.759 -1.3081  0.4197 -2.3698
   95DOPC  H18T13063   8.922   6.510   3.802 -0.5716  1.3016  0.8578
   95DOPC   C3313064   9.219   5.977   5.161  0.5457  0.4330  0.1996
   95DOPC   H3X13065   9.108   5.990   5.167  0.6621  1.2349  1.0112
   95DOPC   H3Y13066   9.244   5.909   5.245  0.2421  1.5118  1.2014
   95DOPC   C3413067   9.263   5.917   5.021 -0.1400 -0.0446  0.8780
   95DOPC   H4X13068   9.239   5.989   4.941  1.7417 -0.0288  0.2737
   95DOPC   H4Y13069   9.210   5.826   4.988  2.4929 -0.9086 -1.3692
   95DOPC   C3513070   9.417   5.885   5.013  0.2050  0.0411  0.5415
   95DOPC   H5X13071   9.437   5.798   5.080 -0.2513 -3.4048 -3.3869
   95DOPC   H5Y13072   9.484   5.966   5.046  3.0227 -2.5271  1.5757
   95DOPC   C3613073   9.465   5.842   4.872 -0.0096 -0.7993  0.2322
   95DOPC   H6X13074   9.576   5.830   4.871 -0.1618 -2.8946 -1.8991
   95DOPC   H6Y13075   9.430   5.737   4.859  2.1351 -1.4094 -1.1657
   95DOPC   C3713076   9.411   5.933   4.762 -0.0900 -0.8274  0.2647
   95DOPC   H7X13077   9.302   5.916   4.745 -0.0701  0.3727 -1.2253
   95DOPC   H7Y13078   9.425   6.042   4.776 -1.5600 -0.2398 -2.1563
   95DOPC   C3813079   9.479   5.894   4.629  0.3863  0.3099 -0.2205
   95DOPC   H8X13080   9.447   5.788   4.622 -0.6227  0.6703 -1.2829
   95DOPC   H8Y13081   9.589   5.905   4.639  0.4524 -0.5309  0.1211
   95DOPC   C3913082   9.432   5.974   4.512 -0.2712 -0.5127  0.1163
   95DOPC   H9X13083   9.461   6.080   4.519  0.3492 -0.4607 -2.3389
   95DOPC  C31013084   9.377   5.931   4.397 -0.1339  0.2296  0.1288
   95DOPC  H10X13085   9.348   6.008   4.323 -0.7379 -0.1523 -0.0388
   95DOPC  C31113086   9.343   5.790   4.366 -0.0154 -0.3049  1.0020
   95DOPC  H11X13087   9.382   5.711   4.434 -1.7656 -2.7959 -0.7112
   95DOPC  H11Y13088   9.382   5.761   4.266  0.8836  1.0119  0.9555
   95DOPC  C31213089   9.189   5.772   4.361  0.4629  0.4493  0.4952
   95DOPC  H12X13090   9.144   5.812   4.454 -0.2805  0.7247  0.0274
   95DOPC  H12Y13091   9.158   5.665   4.354  1.0484  0.0476  2.9872
   95DOPC  C31313092   9.134   5.831   4.228 -0.3300 -0.1888  0.7995
   95DOPC  H13X13093   9.170   5.936   4.221 -0.4124 -0.1929  0.2708
   95DOPC  H13Y13094   9.181   5.779   4.142  0.9034  2.2406 -0.0889
   95DOPC  C31413095   8.980   5.815   4.216  0.4800 -0.6776 -0.4132
   95DOPC  H14X13096   8.937   5.830   4.318 -0.3088 -0.1195 -0.8183
   95DOPC  H14Y13097   8.947   5.895   4.147  3.3525 -0.7000 -1.9391
   95DOPC  C31513098   8.939   5.680   4.149 -0.1824 -0.1798  0.3987
   95DOPC  H15X13099   8.952   5.602   4.227  1.1499  0.7436  1.1536
   95DOPC  H15Y13100   9.013   5.669   4.067  1.5807  0.2902  1.8616
   95DOPC  C31613101   8.790   5.678   4.097 -0.6997  0.1776 -0.2509
   95DOPC  H16X13102   8.769   5.770   4.038  0.6738  1.2459  0.8364
   95DOPC  H16Y13103   8.769   5.583   4.044  0.3632 -0.2652  0.1063
   95DOPC  C31713104   8.702   5.687   4.218  0.2920 -0.1794 -0.3025
   95DOPC  H17X13105   8.737   5.598   4.274  2.3173  1.3511  1.0404
   95DOPC  H17Y13106   8.719   5.786   4.266 -0.2705 -1.1184  1.9495
   95DOPC  C31813107   8.552   5.679   4.186 -0.1146  0.2951  1.1531
   95DOPC  H18X13108   8.482   5.680   4.272 -2.1578  0.5418 -0.4371
   95DOPC  H18Y13109   8.535   5.774   4.131  2.2583  0.3057  0.3258
   95DOPC  H18Z13110   8.522   5.590   4.127  3.0128 -1.6723  2.2741
   96DOPC     N13111   8.326   5.745   5.755  0.2317  0.1347  0.0863
   96DOPC   C1213112   8.359   5.724   5.608 -0.1421  0.3334 -0.0433
   96DOPC  H12A13113   8.286   5.772   5.544  1.3151 -1.1096 -3.0193
   96DOPC  H12B13114   8.330   5.621   5.591  0.6933 -0.0645  0.8767
   96DOPC   C1313115   8.353   5.884   5.783 -0.0502  0.0756  0.3634
   96DOPC  H13A13116   8.446   5.912   5.737  0.1836 -0.9731  0.1715
   96DOPC  H13B13117   8.274   5.956   5.765 -0.6817 -0.2321  1.7226
   96DOPC  H13C13118   8.365   5.892   5.890 -2.4384 -0.4821  0.7357
   96DOPC   C1413119   8.407   5.667   5.850  0.1124 -0.6577  0.2280
   96DOPC  H14A13120   8.509   5.691   5.825 -0.5642  1.7426 -0.4506
   96DOPC  H14B13121   8.392   5.686   5.955  2.7740  2.3207  0.2135
   96DOPC  H14C13122   8.395   5.560   5.838  0.4273 -0.6401 -0.3092
   96DOPC   C1513123   8.186   5.715   5.783  0.2554  0.1221  0.5903
   96DOPC  H15A13124   8.164   5.613   5.808 -1.2434  0.7325  1.8970
   96DOPC  H15B13125   8.124   5.749   5.701 -1.8771 -0.9994  1.6531
   96DOPC  H15C13126   8.150   5.771   5.868 -1.2594  0.1217 -0.0120
   96DOPC   C1113127   8.501   5.748   5.550  0.0968  0.3473 -0.6874
   96DOPC  H11A13128   8.561   5.669   5.601 -3.1205 -1.2721  0.8407
   96DOPC  H11B13129   8.490   5.722   5.442  1.4224 -1.8802 -0.3323
   96DOPC     P13130   8.686   5.915   5.507  0.1780 -0.0866 -0.1624
   96DOPC   O1313131   8.787   5.876   5.605 -0.6187 -0.0295  0.1030
   96DOPC   O1413132   8.691   6.058   5.487  0.1267 -0.6086  0.7724
   96DOPC   O1213133   8.540   5.890   5.563  0.4776  0.0436  0.1854
   96DOPC   O1113134   8.689   5.832   5.369  0.2204  0.0534 -0.4155
   96DOPC    C113135   8.627   5.894   5.251 -0.8100  0.6098 -0.4933
   96DOPC    HA13136   8.589   5.997   5.264  2.5776  2.0387 -0.7265
   96DOPC    HB13137   8.546   5.826   5.217 -0.0057 -0.7634  0.2250
   96DOPC    C213138   8.738   5.907   5.139  0.4127  0.2591 -0.6603
   96DOPC    HS13139   8.685   5.913   5.042 -0.3348 -1.2593 -0.3633
   96DOPC   O2113140   8.833   5.801   5.142 -0.0314 -0.3030 -0.2249
   96DOPC   C2113141   8.789   5.683   5.094  0.2783 -0.1610  0.3097
   96DOPC   O2213142   8.679   5.663   5.043  0.2006 -0.0505 -0.4695
   96DOPC   C2213143   8.892   5.573   5.137 -0.5942  0.5220  0.4072
   96DOPC   H2R13144   8.840   5.481   5.104  0.6059 -0.0463  0.0546
   96DOPC   H2S13145   8.888   5.568   5.248 -0.4820 -3.6868  0.3575
   96DOPC    C313146   8.811   6.049   5.166 -0.5284 -0.7392  0.3617
   96DOPC    HX13147   8.901   6.050   5.101 -1.4269  0.8681 -0.9276
   96DOPC    HY13148   8.853   6.044   5.269  1.1477 -0.2864 -0.2636
   96DOPC   O3113149   8.719   6.160   5.142  0.0088  0.3153  0.1719
   96DOPC   C3113150   8.725   6.257   5.228  0.1052  0.1755  0.2170
   96DOPC   O3213151   8.821   6.280   5.301  0.5814  0.9942 -0.3238
   96DOPC   C3213152   8.591   6.337   5.214 -0.2693 -0.4306 -0.1316
   96DOPC   H2X13153   8.575   6.352   5.105 -1.8024  1.3700  0.2967
   96DOPC   H2Y13154   8.507   6.286   5.265  1.6318 -1.1658  2.4908
   96DOPC   C2313155   9.040   5.585   5.083  0.2076  0.0283 -0.4415
   96DOPC   H3R13156   9.091   5.501   5.134 -1.9877 -0.0787  1.7763
   96DOPC   H3S13157   9.071   5.683   5.125 -1.6662  0.6676 -0.4707
   96DOPC   C2413158   9.050   5.583   4.935 -0.1882  0.4445  0.4741
   96DOPC   H4R13159   9.148   5.620   4.900  0.5174 -1.4819  0.3249
   96DOPC   H4S13160   8.968   5.644   4.890  0.7203  2.3633  1.2865
   96DOPC   C2513161   9.029   5.446   4.877  0.1486  0.7232 -0.2175
   96DOPC   H5R13162   8.932   5.403   4.911  1.7622 -2.4977  0.6602
   96DOPC   H5S13163   9.104   5.369   4.904 -0.3314  0.3096 -0.0359
   96DOPC   C2613164   9.016   5.448   4.722  0.4684  0.7475 -0.0690
   96DOPC   H6R13165   9.106   5.498   4.680  2.5203 -1.0009  1.9464
   96DOPC   H6S13166   8.923   5.498   4.689 -0.8174 -1.3677  0.1445
   96DOPC   C2713167   9.014   5.295   4.685  1.0474 -0.4168 -0.1567
   96DOPC   H7R13168   8.925   5.246   4.729  1.8392 -0.6234  1.2700
   96DOPC   H7S13169   9.102   5.243   4.729 -0.8567 -3.4111  0.3900
   96DOPC   C2813170   9.016   5.267   4.532  0.1171  0.1854 -0.3190
   96DOPC   H8R13171   9.104   5.311   4.481  0.5521 -1.4028 -1.0066
   96DOPC   H8S13172   8.925   5.304   4.480  0.3322 -0.7100 -1.3538
   96DOPC   C2913173   9.031   5.121   4.504 -0.1235 -0.1745 -0.1334
   96DOPC   H9R13174   9.132   5.095   4.468 -0.0684  0.9397 -0.8429
   96DOPC  C21013175   8.942   5.020   4.511 -0.3469 -0.8015  0.4034
   96DOPC  H10R13176   8.974   4.918   4.485 -1.8031 -0.8705 -1.2792
   96DOPC  C21113177   8.797   5.038   4.547  0.9867  0.0621 -0.0992
   96DOPC  H11R13178   8.779   5.125   4.613  1.2751 -0.3941  0.5937
   96DOPC  H11S13179   8.751   4.949   4.594 -0.7267  1.1560  0.3687
   96DOPC  C21213180   8.699   5.066   4.433 -0.2464  0.2869  0.6564
   96DOPC  H12R13181   8.597   5.086   4.472 -0.3231 -1.8873  1.6904
   96DOPC  H12S13182   8.691   4.983   4.360 -0.1923  0.0634  0.9042
   96DOPC  C21313183   8.728   5.194   4.345 -0.1659  0.1443 -0.4676
   96DOPC  H13R13184   8.838   5.189   4.332  0.5119  0.1762  3.7374
   96DOPC  H13S13185   8.715   5.290   4.400 -0.5382 -0.2662  0.1748
   96DOPC  C21413186   8.660   5.184   4.208 -0.2622 -0.1553 -0.0875
   96DOPC  H14R13187   8.677   5.076   4.187 -0.7205 -0.6551  1.9082
   96DOPC  H14S13188   8.718   5.252   4.143 -0.9603 -2.5211 -3.4160
   96DOPC  C21513189   8.506   5.216   4.214  0.6856 -0.0895  0.4825
   96DOPC  H15R13190   8.492   5.319   4.253  0.3450 -0.2959  0.9108
   96DOPC  H15S13191   8.456   5.145   4.284 -1.1401  1.5392  0.8982
   96DOPC  C21613192   8.431   5.234   4.079 -0.3272  0.2332  0.6028
   96DOPC  H16R13193   8.445   5.146   4.013 -3.0533  0.1755 -0.0325
   96DOPC  H16S13194   8.483   5.322   4.036 -0.3045  0.7851  1.7244
   96DOPC  C21713195   8.275   5.250   4.087 -0.3437  0.3123  0.1519
   96DOPC  H17R13196   8.251   5.345   4.033 -0.7516  0.3128  0.3314
   96DOPC  H17S13197   8.244   5.260   4.193  1.0816 -3.0566  1.0106
   96DOPC  C21813198   8.185   5.144   4.014  0.0631  0.0119 -0.3204
   96DOPC  H18R13199   8.204   5.046   4.062 -1.3858 -0.6701 -1.0733
   96DOPC  H18S13200   8.210   5.127   3.907  1.4303 -0.7831  0.0944
   96DOPC  H18T13201   8.076   5.162   4.026  0.0181 -0.7387  0.4807
   96DOPC   C3313202   8.602   6.483   5.276  0.0497  0.0582  0.1187
   96DOPC   H3X13203   8.698   6.534   5.252  0.0420  0.4876  0.9755
   96DOPC   H3Y13204   8.603   6.472   5.386  0.0327  1.2951  0.2572
   96DOPC   C3413205   8.482   6.582   5.241  0.1944 -0.5171  0.1543
   96DOPC   H4X13206   8.505   6.675   5.297  0.7024  0.1480 -1.1345
   96DOPC   H4Y13207   8.387   6.540   5.281  0.7422 -2.0561 -0.0884
   96DOPC   C3513208   8.472   6.618   5.092 -0.0443 -0.3231  0.3113
   96DOPC   H5X13209   8.384   6.685   5.086 -0.9727 -1.2383  2.5092
   96DOPC   H5Y13210   8.444   6.532   5.029 -2.2300  0.2600  0.4181
   96DOPC   C3613211   8.598   6.688   5.030  0.5662 -0.3330 -0.1294
   96DOPC   H6X13212   8.614   6.787   5.078 -1.7824 -0.2954  0.7375
   96DOPC   H6Y13213   8.687   6.624   5.044  0.3320 -0.3814  1.2810
   96DOPC   C3713214   8.593   6.692   4.875  0.0498  0.8022 -0.4525
   96DOPC   H7X13215   8.602   6.599   4.816 -0.3481  1.6666 -1.9285
   96DOPC   H7Y13216   8.502   6.742   4.834 -1.4594 -1.6917 -0.3774
   96DOPC   C3813217   8.706   6.786   4.824  0.0185  0.5019  0.0556
   96DOPC   H8X13218   8.800   6.754   4.874 -0.5553  0.6544  1.2657
   96DOPC   H8Y13219   8.689   6.893   4.849  3.0348  1.0832  0.0536
   96DOPC   C3913220   8.719   6.771   4.675  0.4105  0.3678 -0.4208
   96DOPC   H9X13221   8.637   6.817   4.617 -0.9568 -0.6293  0.6649
   96DOPC  C31013222   8.815   6.697   4.614  0.0032  0.0118  0.2688
   96DOPC  H10X13223   8.813   6.685   4.505  0.6300  1.6153  0.0619
   96DOPC  C31113224   8.932   6.620   4.676  0.1382 -0.1070 -0.0126
   96DOPC  H11X13225   8.938   6.522   4.625  1.4693  0.8296 -1.7630
   96DOPC  H11Y13226   8.915   6.608   4.785  1.0167  1.4373  0.3337
   96DOPC  C31213227   9.058   6.704   4.658  0.9765  0.5286  0.1457
   96DOPC  H12X13228   9.082   6.713   4.550  0.7194 -0.8459 -0.0400
   96DOPC  H12Y13229   9.140   6.646   4.704  0.1112  0.4505  1.6477
   96DOPC  C31313230   9.042   6.857   4.709 -0.5072 -0.3613  0.0738
   96DOPC  H13X13231   8.968   6.907   4.643 -0.0339 -1.6218 -1.4727
   96DOPC  H13Y13232   9.005   6.845   4.813 -2.1972 -1.0233 -0.5699
   96DOPC  C31413233   9.175   6.939   4.699  0.7543  0.2266  0.1061
   96DOPC  H14X13234   9.197   6.967   4.594  1.5734  1.1030  0.5071
   96DOPC  H14Y13235   9.144   7.035   4.745  0.6159  1.3462 -2.1846
   96DOPC  C31513236   9.297   6.881   4.770  0.1300  0.1040 -0.5273
   96DOPC  H15X13237   9.314   6.777   4.734  0.0534 -0.2446  0.4124
   96DOPC  H15Y13238   9.282   6.884   4.880 -0.5209  1.7599 -0.6363
   96DOPC  C31613239   9.415   6.976   4.741 -0.5776 -0.0364 -0.1264
   96DOPC  H16X13240   9.436   6.998   4.634 -2.1627  3.2347  0.1099
   96DOPC  H16Y13241   9.403   7.075   4.791  1.1642  1.0249 -1.6782
   96DOPC  C31713242   9.550   6.920   4.796  0.6275  0.3840 -0.7358
   96DOPC  H17X13243   9.532   6.869   4.893  0.8297  3.2611  0.9466
   96DOPC  H17Y13244   9.600   6.858   4.719 -0.3723 -0.5557 -0.6575
   96DOPC  C31813245   9.636   7.038   4.838 -0.5558 -0.3249  0.1656
   96DOPC  H18X13246   9.607   7.085   4.934  1.7306 -1.1427  1.3446
   96DOPC  H18Y13247   9.727   6.989   4.878 -1.3970  0.2583  3.0282
   96DOPC  H18Z13248   9.663   7.111   4.758 -0.4718  2.0573  2.2601
   97DOPC     N13249   1.396   8.037   6.717 -1.1447 -0.2909  0.7782
   97DOPC   C1213250   1.378   8.083   6.569 -0.1385 -0.4038 -0.4819
   97DOPC  H12A13251   1.273   8.086   6.544 -0.5848 -0.1667  1.2943
   97DOPC  H12B13252   1.427   8.007   6.510  2.3660  0.9208 -0.2354
   97DOPC   C1313253   1.340   7.904   6.727 -0.3319  0.2058 -0.0699
   97DOPC  H13A13254   1.234   7.920   6.714 -0.2637  1.3781  0.6029
   97DOPC  H13B13255   1.376   7.830   6.657  2.3872  0.0288  1.3903
   97DOPC  H13C13256   1.374   7.878   6.827  1.5478 -0.4029 -0.8244
   97DOPC   C1413257   1.339   8.141   6.812 -0.0626  0.0964  0.4956
   97DOPC  H14A13258   1.376   8.237   6.781  0.2805 -0.4221 -0.7579
   97DOPC  H14B13259   1.231   8.131   6.819 -0.1062 -0.1852 -0.4510
   97DOPC  H14C13260   1.377   8.120   6.911  2.0553  1.3235 -0.0112
   97DOPC   C1513261   1.544   8.035   6.743 -0.1273 -1.0994 -0.1075
   97DOPC  H15A13262   1.558   8.031   6.849 -0.6414  1.6879  0.1602
   97DOPC  H15B13263   1.586   8.127   6.703 -0.0244 -1.2567 -0.3680
   97DOPC  H15C13264   1.597   7.953   6.697  1.4027  1.0783 -2.5962
   97DOPC   C1113265   1.443   8.211   6.512 -0.5575 -0.3064  0.2797
   97DOPC  H11A13266   1.552   8.194   6.497 -0.6440 -0.0364 -0.7439
   97DOPC  H11B13267   1.397   8.243   6.417 -0.5711 -0.5736  0.1951
   97DOPC     P13268   1.527   8.443   6.578  0.6501  0.0358 -0.4988
   97DOPC   O1313269   1.656   8.420   6.647 -0.4637 -0.1284  0.0871
   97DOPC   O1413270   1.454   8.564   6.620 -0.7688  0.1939  0.6786
   97DOPC   O1213271   1.429   8.316   6.602 -0.0762  0.4332 -0.1802
   97DOPC   O1113272   1.539   8.438   6.421 -0.0426 -0.3814 -0.4367
   97DOPC    C113273   1.661   8.395   6.349 -0.2596  0.1254  0.3783
   97DOPC    HA13274   1.685   8.291   6.377  1.6835  0.4643  0.0642
   97DOPC    HB13275   1.748   8.456   6.381 -0.2713  1.2655 -1.6106
   97DOPC    C213276   1.648   8.409   6.197 -0.7812 -0.2344 -0.7945
   97DOPC    HS13277   1.680   8.510   6.161  0.6163  0.0170  0.9969
   97DOPC   O2113278   1.516   8.380   6.144  0.1384  0.2955  0.6494
   97DOPC   C2113279   1.438   8.490   6.140 -0.7989 -0.1183 -1.0706
   97DOPC   O2213280   1.481   8.604   6.147 -0.2829 -0.8345 -0.5085
   97DOPC   C2213281   1.299   8.444   6.099 -0.1211 -0.5643  0.4962
   97DOPC   H2R13282   1.241   8.537   6.080 -0.6318 -0.9856 -0.0158
   97DOPC   H2S13283   1.252   8.388   6.182 -1.8756 -1.1496 -0.8415
   97DOPC    C313284   1.748   8.317   6.124  0.1123  0.1693  0.2942
   97DOPC    HX13285   1.720   8.216   6.161  0.4175 -0.2940 -0.7089
   97DOPC    HY13286   1.854   8.320   6.157  1.4010 -3.0025 -2.8832
   97DOPC   O3113287   1.737   8.316   5.977  0.7589  0.7201  0.2598
   97DOPC   C3113288   1.822   8.389   5.915 -0.5125 -0.1310 -0.1937
   97DOPC   O3213289   1.898   8.471   5.964  0.2259  0.3313  0.3339
   97DOPC   C3213290   1.813   8.364   5.767  0.3934  0.6060  1.0451
   97DOPC   H2X13291   1.798   8.255   5.751 -0.4203  0.9792 -1.0955
   97DOPC   H2Y13292   1.724   8.422   5.734 -0.0981  0.0653  1.3964
   97DOPC   C2313293   1.301   8.367   5.967  0.6091 -0.5856 -0.7797
   97DOPC   H3R13294   1.199   8.331   5.941  0.5130 -0.5785 -0.4315
   97DOPC   H3S13295   1.347   8.268   5.989  3.1677  1.2251  3.3935
   97DOPC   C2413296   1.371   8.431   5.845 -0.1253  0.3734 -0.2678
   97DOPC   H4R13297   1.481   8.429   5.863 -0.3894 -1.1176  1.5538
   97DOPC   H4S13298   1.341   8.537   5.834 -1.5952 -0.1361 -1.4795
   97DOPC   C2513299   1.341   8.366   5.712 -0.2046  0.4123  0.6443
   97DOPC   H5R13300   1.233   8.380   5.690 -0.2746  0.4902  1.0163
   97DOPC   H5S13301   1.364   8.258   5.727  1.0442  0.4529 -0.8538
   97DOPC   C2613302   1.430   8.424   5.601 -0.7321 -0.6823 -0.6950
   97DOPC   H6R13303   1.535   8.404   5.629 -0.5066  2.2162  1.0033
   97DOPC   H6S13304   1.418   8.535   5.599  0.4446 -0.3820  2.6797
   97DOPC   C2713305   1.392   8.367   5.463  0.3869  0.6544  0.3966
   97DOPC   H7R13306   1.287   8.395   5.443  0.0153 -0.8811  0.0506
   97DOPC   H7S13307   1.396   8.256   5.454  1.3279  0.6047  1.1963
   97DOPC   C2813308   1.484   8.411   5.344 -0.1674 -0.2083 -0.3300
   97DOPC   H8R13309   1.468   8.521   5.342 -1.9169 -0.4488 -1.7365
   97DOPC   H8S13310   1.426   8.368   5.260 -1.4306  1.0810 -0.1590
   97DOPC   C2913311   1.629   8.362   5.346  0.4315 -0.5695  0.1590
   97DOPC   H9R13312   1.681   8.373   5.443  2.5399 -0.3243 -0.9590
   97DOPC  C21013313   1.701   8.314   5.245 -0.4688  0.6178  0.2116
   97DOPC  H10R13314   1.810   8.300   5.252 -0.5970 -0.8710 -0.3644
   97DOPC  C21113315   1.651   8.298   5.101  0.0629  0.2690 -0.5777
   97DOPC  H11R13316   1.590   8.387   5.077  0.2345  0.4371 -0.3959
   97DOPC  H11S13317   1.589   8.205   5.098 -0.0920  0.3826 -0.9395
   97DOPC  C21213318   1.779   8.297   5.010 -0.1514  0.0141 -0.3594
   97DOPC  H12R13319   1.837   8.205   5.034 -0.8655 -0.3397  0.0763
   97DOPC  H12S13320   1.845   8.384   5.023 -0.7977  0.3295  0.9741
   97DOPC  C21313321   1.742   8.288   4.858  0.5535 -0.2010 -0.5376
   97DOPC  H13R13322   1.684   8.379   4.829  0.6562 -0.2903 -1.0427
   97DOPC  H13S13323   1.684   8.196   4.835 -1.8342  0.9995  0.2901
   97DOPC  C21413324   1.868   8.284   4.774  0.9164 -1.0697 -0.5369
   97DOPC  H14R13325   1.924   8.196   4.814  1.1609 -0.9272 -0.5663
   97DOPC  H14S13326   1.925   8.376   4.797  0.9151 -1.5496  1.6211
   97DOPC  C21513327   1.840   8.246   4.627 -0.1603  0.2582  0.0492
   97DOPC  H15R13328   1.811   8.341   4.578 -0.2133  0.3092  0.1786
   97DOPC  H15S13329   1.761   8.168   4.620 -0.2456  0.3343  0.1568
   97DOPC  C21613330   1.963   8.191   4.561 -0.0954 -0.1912 -0.5823
   97DOPC  H16R13331   1.985   8.095   4.611 -1.4879 -0.1827  0.0901
   97DOPC  H16S13332   2.048   8.260   4.583 -0.6684  0.1159  0.7056
   97DOPC  C21713333   1.949   8.193   4.406  0.5812 -0.4813  0.2014
   97DOPC  H17R13334   1.920   8.297   4.378  0.9149  0.0052  1.6167
   97DOPC  H17S13335   1.865   8.128   4.374  0.7899 -0.6069 -0.0993
   97DOPC  C21813336   2.073   8.148   4.323  0.0731  0.0087  0.9870
   97DOPC  H18R13337   2.051   8.137   4.215 -1.1366 -0.5126  1.2742
   97DOPC  H18S13338   2.124   8.058   4.365  1.7449  0.6152  0.3513
   97DOPC  H18T13339   2.157   8.220   4.338 -0.6170  0.9145  0.5961
   97DOPC   C3313340   1.944   8.411   5.693  0.3285  0.3361 -0.1714
   97DOPC   H3X13341   2.031   8.376   5.753 -1.4079  1.2157  3.1170
   97DOPC   H3Y13342   1.936   8.522   5.684 -2.2564  0.3567  1.3771
   97DOPC   C3413343   1.959   8.353   5.548  0.8751  0.5655 -0.2483
   97DOPC   H4X13344   1.868   8.378   5.489 -0.1936 -0.7059  0.7710
   97DOPC   H4Y13345   1.959   8.242   5.560  1.8134  0.6716  0.8840
   97DOPC   C3513346   2.083   8.398   5.476 -0.0250  0.2310 -0.0211
   97DOPC   H5X13347   2.103   8.328   5.392  1.3590  1.9477 -1.2074
   97DOPC   H5Y13348   2.178   8.391   5.532 -0.2547 -1.9437  0.1581
   97DOPC   C3613349   2.084   8.539   5.410  0.1000 -0.0927 -0.1177
   97DOPC   H6X13350   1.987   8.562   5.361 -0.3864  1.0566  1.3044
   97DOPC   H6Y13351   2.098   8.616   5.489  1.9891 -0.1020 -0.4029
   97DOPC   C3713352   2.214   8.570   5.325 -0.9003  0.2422  0.0465
   97DOPC   H7X13353   2.211   8.681   5.321 -2.5885  0.2409  0.2108
   97DOPC   H7Y13354   2.306   8.551   5.384  0.0598  1.7774 -0.8919
   97DOPC   C3813355   2.227   8.498   5.186  0.3959 -0.5964  0.3299
   97DOPC   H8X13356   2.244   8.389   5.197  2.0862 -0.8772 -3.4362
   97DOPC   H8Y13357   2.322   8.538   5.143 -0.3459  0.4478 -0.3812
   97DOPC   C3913358   2.110   8.527   5.104 -0.7326 -0.2867 -0.6534
   97DOPC   H9X13359   2.011   8.497   5.144 -0.1269 -0.9146  0.4259
   97DOPC  C31013360   2.096   8.587   4.984  0.3203  0.2159 -0.6368
   97DOPC  H10X13361   1.992   8.614   4.960  0.0780 -0.5142 -0.4152
   97DOPC  C31113362   2.209   8.650   4.901 -0.6779  1.1510 -0.3273
   97DOPC  H11X13363   2.305   8.658   4.956 -1.1080 -2.3161  1.1335
   97DOPC  H11Y13364   2.188   8.752   4.860 -1.7256  1.6737  1.4145
   97DOPC  C31213365   2.232   8.572   4.765  0.3296  0.4247  0.8473
   97DOPC  H12X13366   2.286   8.641   4.697 -0.8840 -0.3345 -0.9559
   97DOPC  H12Y13367   2.132   8.548   4.725  0.8351  0.2110 -0.3278
   97DOPC  C31313368   2.329   8.446   4.777  0.1363  0.6674  0.0628
   97DOPC  H13X13369   2.432   8.477   4.804  0.6384 -0.8801 -0.0184
   97DOPC  H13Y13370   2.289   8.386   4.861 -1.5187  0.1753 -1.0219
   97DOPC  C31413371   2.325   8.359   4.652 -0.2182  0.2486  0.1068
   97DOPC  H14X13372   2.354   8.255   4.677  0.3508  0.7492  1.5919
   97DOPC  H14Y13373   2.219   8.357   4.620 -0.3483  0.0318  0.5524
   97DOPC  C31513374   2.421   8.407   4.534 -0.3617 -0.1125 -0.3249
   97DOPC  H15X13375   2.395   8.514   4.523  2.1237  0.3264 -2.8596
   97DOPC  H15Y13376   2.408   8.350   4.440 -3.7966 -1.5691  0.8407
   97DOPC  C31613377   2.574   8.395   4.558  0.5848  0.3109 -0.2795
   97DOPC  H16X13378   2.589   8.454   4.651  2.0463 -0.6153  0.1165
   97DOPC  H16Y13379   2.608   8.290   4.577  0.8801  0.1962 -1.3699
   97DOPC  C31713380   2.651   8.460   4.445 -0.4657 -0.2192 -0.1052
   97DOPC  H17X13381   2.646   8.401   4.350 -0.0333 -0.7643  0.2055
   97DOPC  H17Y13382   2.622   8.567   4.442 -2.0005 -0.6024  0.3136
   97DOPC  C31813383   2.797   8.443   4.468  0.0491  0.5200  0.4158
   97DOPC  H18X13384   2.852   8.461   4.373 -2.4034  0.5539 -1.0793
   97DOPC  H18Y13385   2.826   8.506   4.554 -1.8263  1.2733  0.5384
   97DOPC  H18Z13386   2.827   8.338   4.490 -1.1528  0.0700  0.0099
   98DOPC     N13387  11.125   3.751   6.513 -0.0603 -0.3006 -0.5920
   98DOPC   C1213388  11.099   3.620   6.439  0.2332  0.4990  1.0403
   98DOPC  H12A13389  10.995   3.612   6.410  0.1490  1.0494  1.1754
   98DOPC  H12B13390  11.124   3.531   6.494  0.9720 -1.2305 -1.8543
   98DOPC   C1313391  11.076   3.869   6.429 -0.7243  0.0944 -0.3005
   98DOPC  H13A13392  11.147   3.893   6.350 -1.1892  0.8762 -0.4977
   98DOPC  H13B13393  10.981   3.843   6.385  0.0268 -1.4441 -1.0785
   98DOPC  H13C13394  11.071   3.959   6.489 -2.6136 -1.3613  1.8579
   98DOPC   C1413395  11.272   3.771   6.555 -0.0191  0.2849 -0.0146
   98DOPC  H14A13396  11.303   3.699   6.628 -0.2446  1.0192  0.8231
   98DOPC  H14B13397  11.324   3.754   6.462 -0.2744 -2.4626  0.2824
   98DOPC  H14C13398  11.278   3.873   6.591 -3.9645  0.2096  1.3057
   98DOPC   C1513399  11.043   3.752   6.644 -0.8655  0.2868  0.3667
   98DOPC  H15A13400  11.067   3.832   6.712  1.6841  0.3528 -0.5158
   98DOPC  H15B13401  11.059   3.664   6.704 -3.1449 -0.5651 -0.1479
   98DOPC  H15C13402  10.936   3.755   6.627 -0.9867 -0.8539  0.8538
   98DOPC   C1113403  11.177   3.595   6.309  0.1084  0.4290 -0.4403
   98DOPC  H11A13404  11.134   3.508   6.254  0.1988 -1.1006  1.7499
   98DOPC  H11B13405  11.155   3.683   6.245 -2.8344 -0.0264 -0.2184
   98DOPC     P13406  11.394   3.465   6.397  0.0471 -0.0859  0.1163
   98DOPC   O1313407  11.308   3.403   6.501  0.1671 -0.7995  0.0136
   98DOPC   O1413408  11.530   3.493   6.438  0.4762 -0.3502 -0.3571
   98DOPC   O1213409  11.323   3.591   6.331  0.7101 -0.0778  0.3677
   98DOPC   O1113410  11.393   3.354   6.284 -0.3563  0.2156 -0.1244
   98DOPC    C113411  11.482   3.356   6.170  0.0968  0.1384  0.1055
   98DOPC    HA13412  11.574   3.303   6.205 -2.9716 -3.3649  3.8942
   98DOPC    HB13413  11.514   3.458   6.140 -2.3205  0.5034 -1.4573
   98DOPC    C213414  11.420   3.291   6.046 -0.5139 -0.8092  0.0827
   98DOPC    HS13415  11.491   3.271   5.963 -0.3767 -1.5562  0.3792
   98DOPC   O2113416  11.307   3.371   5.999  0.1688 -0.5510 -0.0038
   98DOPC   C2113417  11.338   3.479   5.922  0.9203  0.6878 -0.3787
   98DOPC   O2213418  11.448   3.512   5.894 -0.8855  0.7925  0.3788
   98DOPC   C2213419  11.204   3.550   5.902  0.9239  0.3163 -0.2809
   98DOPC   H2R13420  11.158   3.578   5.999  0.0791 -0.6103 -0.3974
   98DOPC   H2S13421  11.132   3.492   5.841  0.0973 -1.5954  2.3416
   98DOPC    C313422  11.377   3.149   6.083  0.0810  0.1156  0.0460
   98DOPC    HX13423  11.303   3.157   6.165  1.1549  0.6484  0.9933
   98DOPC    HY13424  11.462   3.097   6.132 -0.9561 -0.5056  1.2550
   98DOPC   O3113425  11.337   3.067   5.975  0.4101 -0.1331 -0.2892
   98DOPC   C3113426  11.209   3.052   5.943  0.2225  0.1009  0.1178
   98DOPC   O3213427  11.113   3.115   5.988  0.3174 -0.2484 -0.0835
   98DOPC   C3213428  11.202   2.951   5.831  0.7065 -0.2075  0.0832
   98DOPC   H2X13429  11.289   2.972   5.766  0.0793 -0.2823 -0.7958
   98DOPC   H2Y13430  11.207   2.845   5.866 -3.0115 -0.7813 -0.6898
   98DOPC   C2313431  11.222   3.678   5.820 -0.0531  0.5511  0.3047
   98DOPC   H3R13432  11.298   3.742   5.870 -0.2193 -0.8076  2.4047
   98DOPC   H3S13433  11.129   3.738   5.824 -1.1330 -1.0982  1.7074
   98DOPC   C2413434  11.259   3.661   5.673 -0.0552 -0.0842 -0.3083
   98DOPC   H4R13435  11.233   3.558   5.640 -0.5151  0.1449 -0.6813
   98DOPC   H4S13436  11.368   3.669   5.653  0.7394 -3.4692  1.8999
   98DOPC   C2513437  11.197   3.753   5.567  0.0994 -0.3084 -0.5698
   98DOPC   H5R13438  11.210   3.856   5.607 -2.0732 -0.6372  1.1476
   98DOPC   H5S13439  11.090   3.724   5.562 -0.0806  0.1954  0.2659
   98DOPC   C2613440  11.269   3.737   5.433  0.1609  0.3147 -0.2639
   98DOPC   H6R13441  11.240   3.633   5.404 -2.3478  0.7417  0.4801
   98DOPC   H6S13442  11.379   3.739   5.449  0.1352 -1.4913  0.3940
   98DOPC   C2713443  11.218   3.834   5.329 -0.1068  0.3438 -0.2777
   98DOPC   H7R13444  11.243   3.790   5.230  0.1835 -0.1141 -0.0054
   98DOPC   H7S13445  11.272   3.931   5.343  0.4276  0.0809 -0.4687
   98DOPC   C2813446  11.066   3.875   5.338 -0.0655  0.0316  0.0842
   98DOPC   H8R13447  11.038   3.928   5.431  3.4287 -0.3802  1.5317
   98DOPC   H8S13448  11.001   3.786   5.324 -1.7981  1.3937 -0.9774
   98DOPC   C2913449  11.019   3.964   5.225 -0.3968 -0.9360 -0.0959
   98DOPC   H9R13450  11.039   4.070   5.247  0.3339 -0.9726 -0.5655
   98DOPC  C21013451  10.980   3.924   5.099 -0.0772  0.0019 -0.7118
   98DOPC  H10R13452  10.936   3.999   5.031 -2.9419 -1.0659 -0.1509
   98DOPC  C21113453  11.004   3.781   5.054  0.5875  0.4132 -0.4137
   98DOPC  H11R13454  10.905   3.735   5.034 -0.3394  1.1188  2.1394
   98DOPC  H11S13455  11.066   3.719   5.122  0.0667  0.5673  0.2033
   98DOPC  C21213456  11.082   3.789   4.924 -0.6226 -1.0899 -0.4082
   98DOPC  H12R13457  11.186   3.817   4.954 -1.5713  2.2105  0.2407
   98DOPC  H12S13458  11.041   3.860   4.848  0.2293 -1.1284 -0.9293
   98DOPC  C21313459  11.079   3.660   4.840 -0.2334  0.0031 -0.6270
   98DOPC  H13R13460  10.975   3.624   4.829 -0.0828  0.0613 -2.5150
   98DOPC  H13S13461  11.123   3.583   4.907  0.6720  0.1888 -0.9954
   98DOPC  C21413462  11.144   3.650   4.705 -0.0407 -0.1697  0.1339
   98DOPC  H14R13463  11.116   3.547   4.672  2.0603 -1.6916  2.7056
   98DOPC  H14S13464  11.254   3.655   4.722  0.1963  1.8025 -1.5820
   98DOPC  C21513465  11.101   3.746   4.588 -0.1173 -0.3348  0.1445
   98DOPC  H15R13466  11.142   3.844   4.620  1.1888 -1.2362  1.3285
   98DOPC  H15S13467  10.990   3.748   4.592 -0.1305 -0.9119  0.2695
   98DOPC  C21613468  11.149   3.704   4.453 -0.2836  0.4855 -0.3435
   98DOPC  H16R13469  11.102   3.607   4.426 -2.1305  0.4662  2.5340
   98DOPC  H16S13470  11.260   3.693   4.454 -0.3794 -0.5504 -0.0232
   98DOPC  C21713471  11.108   3.796   4.336 -0.2689 -0.2800  0.7492
   98DOPC  H17R13472  10.999   3.778   4.329 -1.0541  2.0514  4.3036
   98DOPC  H17S13473  11.168   3.774   4.245  0.7452  0.8886  1.1066
   98DOPC  C21813474  11.127   3.941   4.358 -0.0807  0.0578  0.1556
   98DOPC  H18R13475  11.099   3.991   4.263 -0.5679 -0.1716  0.1767
   98DOPC  H18S13476  11.236   3.958   4.372  0.6787 -3.3454 -0.7498
   98DOPC  H18T13477  11.058   3.976   4.437  2.0249  2.0619  1.2172
   98DOPC   C3313478  11.061   2.953   5.751 -0.2009  0.2129  0.1816
   98DOPC   H3X13479  11.056   3.045   5.689 -1.0206  0.7755  1.0508
   98DOPC   H3Y13480  10.978   2.967   5.824 -0.8572 -2.0742 -0.0569
   98DOPC   C3413481  11.047   2.827   5.662 -0.3020  0.0106 -0.5354
   98DOPC   H4X13482  11.079   2.735   5.717 -1.2833 -0.1847 -0.2745
   98DOPC   H4Y13483  11.121   2.844   5.581  2.1404  1.3505  1.7764
   98DOPC   C3513484  10.901   2.805   5.603  0.0483 -0.1754 -0.1046
   98DOPC   H5X13485  10.854   2.904   5.585 -1.2516 -0.4743  1.4287
   98DOPC   H5Y13486  10.842   2.755   5.683 -0.2209  1.8600  1.0377
   98DOPC   C3613487  10.912   2.725   5.476  0.1437  0.4423 -0.4999
   98DOPC   H6X13488  10.968   2.773   5.393  0.3514  0.1399 -0.5373
   98DOPC   H6Y13489  10.962   2.628   5.496 -0.7113 -0.6690 -3.3040
   98DOPC   C3713490  10.779   2.687   5.408  0.2720  0.6377  0.1322
   98DOPC   H7X13491  10.726   2.628   5.486  1.1756 -0.7789 -0.2791
   98DOPC   H7Y13492  10.736   2.785   5.378  0.4722  0.4892 -0.6662
   98DOPC   C3813493  10.782   2.592   5.283 -0.7908 -0.0082  0.3082
   98DOPC   H8X13494  10.806   2.489   5.317 -0.4774  0.1146  0.4573
   98DOPC   H8Y13495  10.867   2.621   5.217 -0.7991 -2.1460 -0.7638
   98DOPC   C3913496  10.661   2.599   5.194  0.8910 -0.4936  1.3446
   98DOPC   H9X13497  10.562   2.629   5.232  0.6251  2.6060 -1.3790
   98DOPC  C31013498  10.663   2.561   5.061 -0.2785 -0.0040 -0.3297
   98DOPC  H10X13499  10.577   2.576   4.994  0.1429 -0.9548 -1.1099
   98DOPC  C31113500  10.785   2.504   4.987  0.0192 -0.3910 -1.0819
   98DOPC  H11X13501  10.759   2.409   4.937 -0.4192 -0.7268 -0.2210
   98DOPC  H11Y13502  10.876   2.482   5.047  0.7002  1.1168 -1.4984
   98DOPC  C31213503  10.817   2.606   4.878  0.0246 -0.4105 -0.3293
   98DOPC  H12X13504  10.813   2.708   4.921 -3.7307 -0.6735  0.3251
   98DOPC  H12Y13505  10.735   2.605   4.802 -0.7704  0.9283  0.4702
   98DOPC  C31313506  10.954   2.590   4.807 -0.1793 -0.1852 -0.2834
   98DOPC  H13X13507  11.033   2.562   4.880 -0.6381 -1.8127 -0.3609
   98DOPC  H13Y13508  10.948   2.504   4.736 -1.2791 -1.1174  0.8950
   98DOPC  C31413509  10.989   2.719   4.727 -0.3702  0.2393 -0.0249
   98DOPC  H14X13510  10.963   2.802   4.796  0.2512  1.3806 -1.1206
   98DOPC  H14Y13511  11.095   2.721   4.695 -0.0404  1.4203  1.0603
   98DOPC  C31513512  10.904   2.731   4.602  0.1376 -0.2650  0.4497
   98DOPC  H15X13513  10.801   2.722   4.643  0.0280  1.0708  0.5134
   98DOPC  H15Y13514  10.914   2.640   4.538  0.9568  0.5286 -0.5834
   98DOPC  C31613515  10.927   2.858   4.511  0.5965  0.6383 -0.8999
   98DOPC  H16X13516  10.853   2.867   4.428  0.9314 -1.0608 -1.4169
   98DOPC  H16Y13517  10.906   2.952   4.565  0.2087  0.8922 -1.4756
   98DOPC  C31713518  11.067   2.867   4.449  0.1772  0.4781  0.0141
   98DOPC  H17X13519  11.147   2.855   4.526  1.0401 -1.5751 -1.1110
   98DOPC  H17Y13520  11.080   2.779   4.382 -1.0324  1.2163 -1.2382
   98DOPC  C31813521  11.093   2.989   4.369 -0.0618 -0.2560  0.3887
   98DOPC  H18X13522  11.070   3.081   4.427 -0.4556 -0.7123  0.9634
   98DOPC  H18Y13523  11.197   3.005   4.332  0.0132 -0.2886  0.5819
   98DOPC  H18Z13524  11.023   2.983   4.283 -0.6051  0.1958  0.7960
   99DOPC     N13525   3.930  12.368   6.622 -0.5580  0.5713 -0.1473
   99DOPC   C1213526   3.841  12.344   6.498 -0.1143 -0.1454 -0.0996
   99DOPC  H12A13527   3.881  12.281   6.420  0.5108 -0.4462  0.4455
   99DOPC  H12B13528   3.828  12.439   6.450 -1.0230 -0.0921  0.2165
   99DOPC   C1313529   4.046  12.452   6.586  0.2825  0.2780  0.5750
   99DOPC  H13A13530   4.132  12.445   6.650  0.8780  1.0495 -0.1201
   99DOPC  H13B13531   4.097  12.426   6.495  2.0511 -0.5776  1.7684
   99DOPC  H13C13532   4.014  12.556   6.593 -2.0116 -0.3726  0.6728
   99DOPC   C1413533   3.992  12.240   6.669  0.0769  0.1806  0.5316
   99DOPC  H14A13534   3.910  12.191   6.720  0.7750  0.2311  1.7388
   99DOPC  H14B13535   4.021  12.175   6.588  0.9083 -1.2875  1.9429
   99DOPC  H14C13536   4.076  12.251   6.736 -0.3390  2.3394  0.7539
   99DOPC   C1513537   3.853  12.429   6.743 -0.4567  0.4971 -0.7076
   99DOPC  H15A13538   3.914  12.454   6.828 -1.2372  2.7837 -0.7552
   99DOPC  H15B13539   3.780  12.358   6.781 -0.2656  1.7552  2.2759
   99DOPC  H15C13540   3.797  12.516   6.712  0.1284  1.4053  0.7350
   99DOPC   C1113541   3.697  12.299   6.527 -0.6233  0.3821 -0.6938
   99DOPC  H11A13542   3.655  12.370   6.601 -0.0103  0.9382 -0.8780
   99DOPC  H11B13543   3.621  12.313   6.447 -0.8046  1.0862 -0.4030
   99DOPC     P13544   3.681  12.052   6.467  0.4379  0.0985 -0.2487
   99DOPC   O1313545   3.638  11.926   6.532 -0.3214  0.1647  0.0294
   99DOPC   O1413546   3.806  12.051   6.393  0.6445 -0.2099  0.7001
   99DOPC   O1213547   3.690  12.164   6.579  0.3283 -0.4282  0.5557
   99DOPC   O1113548   3.566  12.103   6.374 -0.4004  0.1149  0.5381
   99DOPC    C113549   3.512  12.006   6.282  0.0428 -0.5875 -0.1897
   99DOPC    HA13550   3.404  12.027   6.265  0.2050  0.5064  0.0260
   99DOPC    HB13551   3.512  11.902   6.321  0.2748  0.2710  2.3021
   99DOPC    C213552   3.568  12.018   6.141 -0.1058 -0.4618  0.3944
   99DOPC    HS13553   3.669  11.971   6.139 -0.6997 -1.7793 -0.0297
   99DOPC   O2113554   3.576  12.157   6.094  0.2450  0.1388 -0.0373
   99DOPC   C2113555   3.663  12.193   6.004 -0.3058  0.3860  0.4299
   99DOPC   O2213556   3.757  12.123   5.966 -0.3811  0.2443 -0.2362
   99DOPC   C2213557   3.646  12.329   5.945  0.4595 -0.7688 -0.3588
   99DOPC   H2R13558   3.740  12.389   5.946 -1.0564  1.9770 -3.3853
   99DOPC   H2S13559   3.566  12.395   5.984  1.0836  0.4923 -1.1262
   99DOPC    C313560   3.467  11.949   6.050 -0.0476  0.0058  0.6910
   99DOPC    HX13561   3.365  11.989   6.068 -1.3399 -2.4580 -0.6987
   99DOPC    HY13562   3.454  11.845   6.086 -2.2423  0.4250  1.2500
   99DOPC   O3113563   3.499  11.955   5.912 -0.2844  0.2101 -0.1930
   99DOPC   C3113564   3.590  11.868   5.874 -0.5136  0.0797  0.9252
   99DOPC   O3213565   3.653  11.793   5.940 -1.0018  0.6070 -0.0937
   99DOPC   C3213566   3.584  11.876   5.721  0.1018 -0.0035 -0.2444
   99DOPC   H2X13567   3.506  11.803   5.690  2.7870 -3.1047 -0.2968
   99DOPC   H2Y13568   3.575  11.981   5.688  1.8736 -0.1730 -1.4009
   99DOPC   C2313569   3.608  12.329   5.791 -0.4351 -0.4661  0.2950
   99DOPC   H3R13570   3.551  12.423   5.772  1.4619  0.3638 -1.7165
   99DOPC   H3S13571   3.545  12.241   5.766 -0.8015 -0.4646  1.2054
   99DOPC   C2413572   3.730  12.329   5.693  0.3937 -0.4080 -0.0243
   99DOPC   H4R13573   3.766  12.223   5.690 -3.9507 -2.1760  1.8792
   99DOPC   H4S13574   3.797  12.408   5.732  1.0720 -0.1929 -1.5421
   99DOPC   C2513575   3.707  12.389   5.553 -0.1654  0.6860  0.1577
   99DOPC   H5R13576   3.639  12.323   5.496 -0.5484  0.0368  1.3292
   99DOPC   H5S13577   3.802  12.405   5.499 -1.7697  0.7790 -2.8142
   99DOPC   C2613578   3.630  12.523   5.540  0.0893 -0.3817  0.4586
   99DOPC   H6R13579   3.674  12.594   5.613  0.1409 -1.2073  1.2642
   99DOPC   H6S13580   3.526  12.510   5.577  0.4156 -1.4412  1.0564
   99DOPC   C2713581   3.623  12.588   5.395  0.3663  0.3272 -0.1734
   99DOPC   H7R13582   3.573  12.684   5.420 -0.7714 -0.7392  1.9559
   99DOPC   H7S13583   3.545  12.532   5.340  0.8496  1.3053 -1.9279
   99DOPC   C2813584   3.756  12.596   5.324 -0.5935  0.0027  0.0611
   99DOPC   H8R13585   3.780  12.496   5.283  0.1737  0.4382 -0.5861
   99DOPC   H8S13586   3.834  12.626   5.397  1.3546  0.3943 -2.0799
   99DOPC   C2913587   3.737  12.687   5.205 -0.2398 -1.2439 -0.4633
   99DOPC   H9R13588   3.701  12.787   5.232  3.2103 -0.0846  0.4108
   99DOPC  C21013589   3.764  12.668   5.075 -0.0971 -0.1960 -0.2644
   99DOPC  H10R13590   3.735  12.744   5.000  0.9371  1.1694  0.6867
   99DOPC  C21113591   3.852  12.557   5.020 -0.0317  0.6155  0.0002
   99DOPC  H11R13592   3.801  12.511   4.932 -1.8323 -1.4356  1.9742
   99DOPC  H11S13593   3.866  12.481   5.100 -0.1673 -0.2699 -0.7881
   99DOPC  C21213594   3.994  12.604   4.969  0.4455 -0.1419  0.0335
   99DOPC  H12R13595   4.062  12.516   4.963 -0.1374 -0.5169 -1.4708
   99DOPC  H12S13596   4.030  12.671   5.050  1.5307 -1.3127  0.5707
   99DOPC  C21313597   3.989  12.668   4.832 -1.3065 -0.2434 -0.8555
   99DOPC  H13R13598   4.072  12.742   4.841 -0.5959 -0.9632 -1.4034
   99DOPC  H13S13599   3.894  12.724   4.819 -1.4747 -0.6561 -1.4300
   99DOPC  C21413600   3.998  12.583   4.710  0.1663  0.1718 -0.8694
   99DOPC  H14R13601   3.912  12.513   4.718 -1.5291  2.2967  0.5545
   99DOPC  H14S13602   4.088  12.518   4.702  1.0162  1.0404  1.0112
   99DOPC  C21513603   3.991  12.654   4.577  0.0774 -0.1730  0.1433
   99DOPC  H15R13604   4.076  12.725   4.584 -0.3286  0.2618  0.8971
   99DOPC  H15S13605   3.900  12.717   4.566  1.3581  1.9622  1.1923
   99DOPC  C21613606   4.010  12.550   4.468  0.1354  0.5741 -0.2989
   99DOPC  H16R13607   3.921  12.486   4.486  1.6959 -1.3924  0.8303
   99DOPC  H16S13608   4.095  12.480   4.479  0.7647  1.3539 -0.0257
   99DOPC  C21713609   4.015  12.605   4.323  0.2086 -0.3659  0.3208
   99DOPC  H17R13610   4.106  12.665   4.304 -0.5568  0.6322 -0.3621
   99DOPC  H17S13611   3.925  12.669   4.313 -0.4219 -1.0349  1.4902
   99DOPC  C21813612   3.999  12.495   4.217 -0.1137  0.3169  0.3889
   99DOPC  H18R13613   4.030  12.525   4.114 -0.3215 -1.3820 -0.1923
   99DOPC  H18S13614   3.892  12.466   4.213  0.2233 -0.8373 -1.9083
   99DOPC  H18T13615   4.061  12.405   4.237 -1.3696 -0.8357 -0.6875
   99DOPC   C3313616   3.713  11.814   5.675 -0.6097  0.1317  0.5818
   99DOPC   H3X13617   3.730  11.707   5.700  3.2007 -0.0618 -1.9860
   99DOPC   H3Y13618   3.796  11.864   5.729  0.6905 -0.1531 -1.0406
   99DOPC   C3413619   3.720  11.836   5.520 -0.1146  0.3985 -0.5300
   99DOPC   H4X13620   3.626  11.817   5.464  0.0754  0.7850 -0.9800
   99DOPC   H4Y13621   3.794  11.762   5.483 -1.8572 -0.5829 -2.2130
   99DOPC   C3513622   3.759  11.979   5.491 -0.0438  0.0125 -0.5559
   99DOPC   H5X13623   3.853  11.981   5.550 -0.5738  1.2760  0.2899
   99DOPC   H5Y13624   3.681  12.048   5.528  1.4065  0.9974  0.8123
   99DOPC   C3613625   3.800  11.994   5.347 -0.3568 -0.0180  0.2906
   99DOPC   H6X13626   3.853  12.089   5.323 -0.4752 -0.2466 -0.9612
   99DOPC   H6Y13627   3.879  11.919   5.324  0.8466  1.1335  0.5368
   99DOPC   C3713628   3.686  11.982   5.249 -0.6258  0.2632 -0.4594
   99DOPC   H7X13629   3.725  11.977   5.145 -2.8725  1.6898 -1.4489
   99DOPC   H7Y13630   3.639  11.883   5.264  0.2198 -0.3253 -1.5884
   99DOPC   C3813631   3.568  12.081   5.270  0.3969 -0.5674 -0.8260
   99DOPC   H8X13632   3.547  12.066   5.378  0.5389 -4.8422 -1.1935
   99DOPC   H8Y13633   3.479  12.053   5.209 -1.0215  0.2728  0.7890
   99DOPC   C3913634   3.616  12.215   5.216 -0.5009  0.0366  0.0568
   99DOPC   H9X13635   3.676  12.267   5.292 -0.0419  0.0841 -0.3331
   99DOPC  C31013636   3.596  12.277   5.096 -0.4102 -0.2193  0.1190
   99DOPC  H10X13637   3.630  12.381   5.101  1.2285 -0.5984 -1.6051
   99DOPC  C31113638   3.522  12.232   4.974 -0.6107  0.7714  0.0008
   99DOPC  H11X13639   3.472  12.317   4.922 -3.0394 -0.5178  0.0822
   99DOPC  H11Y13640   3.435  12.171   5.005 -1.8278  2.5413  0.2119
   99DOPC  C31213641   3.614  12.163   4.870  0.4208 -0.1052 -0.0187
   99DOPC  H12X13642   3.544  12.124   4.793 -0.7879  2.5616 -0.3764
   99DOPC  H12Y13643   3.660  12.077   4.923 -0.6393 -1.1094 -0.6787
   99DOPC  C31313644   3.718  12.257   4.809 -0.1562 -0.8084 -0.1852
   99DOPC  H13X13645   3.660  12.339   4.761 -0.7240 -0.5681  0.8901
   99DOPC  H13Y13646   3.782  12.292   4.893  0.3599 -1.1419 -0.4290
   99DOPC  C31413647   3.830  12.195   4.723 -0.0094  0.1229  0.0460
   99DOPC  H14X13648   3.907  12.272   4.702  0.2666  0.0474  0.7571
   99DOPC  H14Y13649   3.880  12.111   4.777 -1.0860 -0.7349 -0.2705
   99DOPC  C31513650   3.781  12.171   4.578 -0.3803  0.2846 -0.4105
   99DOPC  H15X13651   3.866  12.185   4.507 -0.3404  1.0138 -0.2239
   99DOPC  H15Y13652   3.714  12.254   4.549 -0.0120  1.5949  2.2272
   99DOPC  C31613653   3.700  12.039   4.554  0.0285 -0.5640 -0.2168
   99DOPC  H16X13654   3.756  11.949   4.589  0.8549  0.3196  0.8000
   99DOPC  H16Y13655   3.602  12.044   4.605  0.4765 -0.3196  0.6392
   99DOPC  C31713656   3.668  12.002   4.406  0.4285 -0.2664  0.2876
   99DOPC  H17X13657   3.696  12.096   4.353  0.0695  1.2150  2.5926
   99DOPC  H17Y13658   3.734  11.920   4.368  0.2195  0.6112 -2.1309
   99DOPC  C31813659   3.528  11.961   4.393  0.3109 -0.2247  0.1318
   99DOPC  H18X13660   3.497  11.938   4.289  0.7056  0.9102 -0.2433
   99DOPC  H18Y13661   3.501  11.871   4.454 -0.0882 -0.4939 -0.4359
   99DOPC  H18Z13662   3.467  12.050   4.420  0.3050  0.9884 -3.3698
  100DOPC     N13663   3.206   1.970   6.111 -0.1816  0.5498 -0.5052
  100DOPC   C1213664   3.304   1.864   6.175 -0.3413 -0.3428 -0.6349
  100DOPC  H12A13665   3.310   1.780   6.108 -0.9935 -2.4434  1.7992
  100DOPC  H12B13666   3.257   1.832   6.266 -1.0752  2.3579  0.0431
  100DOPC   C1313667   3.183   2.086   6.205  0.4211  0.2190  0.1861
  100DOPC  H13A13668   3.273   2.141   6.229  0.2518  0.6517 -0.1501
  100DOPC  H13B13669   3.121   2.167   6.170 -1.0830  0.6622  3.4726
  100DOPC  H13C13670   3.138   2.050   6.296  0.3129 -0.5411 -0.1568
  100DOPC   C1413671   3.079   1.904   6.071 -0.1875 -0.1608  0.4620
  100DOPC  H14A13672   3.004   1.974   6.038  1.0389  1.4761  1.0021
  100DOPC  H14B13673   3.087   1.818   6.007 -0.9633  1.1203 -1.4645
  100DOPC  H14C13674   3.032   1.863   6.159  0.5752 -1.9901  0.0580
  100DOPC   C1513675   3.261   2.029   5.984  0.2497  0.1279 -0.7035
  100DOPC  H15A13676   3.282   1.953   5.909 -0.4171  0.4296 -1.2082
  100DOPC  H15B13677   3.346   2.095   5.992  0.3188 -0.0800  0.4045
  100DOPC  H15C13678   3.181   2.093   5.950 -0.2575 -0.6820 -1.0797
  100DOPC   C1113679   3.448   1.913   6.202 -1.1714  0.1146  0.5147
  100DOPC  H11A13680   3.506   1.932   6.109  0.1875 -2.8573  0.6166
  100DOPC  H11B13681   3.445   2.002   6.268  2.9490 -0.5981  2.0105
  100DOPC     P13682   3.560   1.669   6.228 -0.1815 -0.0903 -0.4370
  100DOPC   O1313683   3.513   1.568   6.324 -0.2575  0.5274  0.4086
  100DOPC   O1413684   3.712   1.681   6.210 -0.2243  0.0477 -0.4366
  100DOPC   O1213685   3.514   1.813   6.285  0.0660 -0.5156 -0.1714
  100DOPC   O1113686   3.493   1.656   6.086  0.0376 -0.4936 -0.2167
  100DOPC    C113687   3.537   1.558   5.986  0.5380  0.2010  1.0388
  100DOPC    HA13688   3.454   1.490   5.954 -1.4360  3.1644 -0.5564
  100DOPC    HB13689   3.633   1.512   6.018  0.4799 -0.7242 -0.0257
  100DOPC    C213690   3.570   1.636   5.856 -0.7415 -0.2305  0.2996
  100DOPC    HS13691   3.637   1.721   5.880 -1.0306  0.3051 -0.6944
  100DOPC   O2113692   3.440   1.669   5.794 -0.5405  0.2891  0.4469
  100DOPC   C2113693   3.429   1.785   5.749 -1.0628  0.3693  0.0805
  100DOPC   O2213694   3.502   1.880   5.760  0.1893 -0.0952  0.2297
  100DOPC   C2213695   3.299   1.792   5.670  0.5744  0.3219 -0.7980
  100DOPC   H2R13696   3.217   1.797   5.746  0.7503 -0.4699 -0.5488
  100DOPC   H2S13697   3.292   1.697   5.614 -0.2694  0.6453 -1.2559
  100DOPC    C313698   3.646   1.540   5.764 -0.9082 -0.0889 -0.2326
  100DOPC    HX13699   3.594   1.442   5.773  0.9993 -1.1090  0.2435
  100DOPC    HY13700   3.746   1.515   5.807 -0.9741 -1.4262 -0.8141
  100DOPC   O3113701   3.657   1.580   5.621 -0.7656  1.0105  0.1962
  100DOPC   C3113702   3.767   1.649   5.594  0.7358 -0.8985  0.2813
  100DOPC   O3213703   3.843   1.690   5.673  0.2569 -0.0275 -0.3521
  100DOPC   C3213704   3.778   1.686   5.447  0.1656 -0.1486 -0.7410
  100DOPC   H2X13705   3.873   1.652   5.401 -0.1870 -0.9080 -0.9164
  100DOPC   H2Y13706   3.700   1.630   5.392 -0.7073  0.3878 -0.0903
  100DOPC   C2313707   3.309   1.916   5.568 -0.2857  0.0825  1.0313
  100DOPC   H3R13708   3.401   1.906   5.507 -0.0811 -1.3336  1.5287
  100DOPC   H3S13709   3.314   2.014   5.619  0.3855  1.0765 -0.8463
  100DOPC   C2413710   3.198   1.918   5.462  0.0293 -0.0225  0.0838
  100DOPC   H4R13711   3.097   1.929   5.507  0.1258 -0.3065  0.3808
  100DOPC   H4S13712   3.189   1.817   5.417 -0.6932 -1.2550  2.7825
  100DOPC   C2513713   3.206   2.030   5.352 -0.7586  0.6650 -0.2213
  100DOPC   H5R13714   3.226   2.124   5.407 -0.8328 -0.2939  1.5168
  100DOPC   H5S13715   3.107   2.039   5.303 -0.9310  1.3509  0.2442
  100DOPC   C2613716   3.309   1.999   5.241  0.3901  0.2165 -0.4389
  100DOPC   H6R13717   3.342   1.893   5.247 -2.4676 -0.7568 -0.5417
  100DOPC   H6S13718   3.392   2.070   5.261  1.8419 -1.0658 -1.6842
  100DOPC   C2713719   3.247   2.022   5.095 -0.3114 -0.1739 -0.2783
  100DOPC   H7R13720   3.193   2.118   5.103 -1.5694 -0.7420 -1.6194
  100DOPC   H7S13721   3.161   1.954   5.078 -2.4271  2.7974 -2.2810
  100DOPC   C2813722   3.352   2.030   4.990 -0.2127  0.1324  0.1444
  100DOPC   H8R13723   3.419   2.113   5.023  0.2569 -0.8770  1.8281
  100DOPC   H8S13724   3.304   2.055   4.893  0.7600  3.2370  0.3497
  100DOPC   C2913725   3.445   1.908   4.980 -0.6929 -0.1664  0.1117
  100DOPC   H9R13726   3.503   1.892   5.072 -0.6933 -1.4092 -0.0837
  100DOPC  C21013727   3.463   1.816   4.882  0.3820 -0.2470 -0.3750
  100DOPC  H10R13728   3.553   1.753   4.887 -0.1574 -0.9135  3.1771
  100DOPC  C21113729   3.380   1.810   4.756 -0.3385  0.5088  0.4878
  100DOPC  H11R13730   3.275   1.847   4.765 -1.3259 -1.5522 -1.5587
  100DOPC  H11S13731   3.354   1.703   4.745  1.2114  0.2107 -0.5967
  100DOPC  C21213732   3.446   1.865   4.632  0.4768  0.4399 -0.5482
  100DOPC  H12R13733   3.547   1.819   4.627 -0.1050 -0.8311 -0.9182
  100DOPC  H12S13734   3.464   1.975   4.631  0.7565  0.3946 -1.1813
  100DOPC  C21313735   3.373   1.822   4.506  0.4657  0.0643 -0.3838
  100DOPC  H13R13736   3.273   1.869   4.519 -0.2240 -1.6313  0.8554
  100DOPC  H13S13737   3.356   1.713   4.519  0.1518  0.1767  0.2053
  100DOPC  C21413738   3.438   1.858   4.374  0.5349  0.4356  0.2256
  100DOPC  H14R13739   3.387   1.787   4.305 -1.8408  0.0157  2.2610
  100DOPC  H14S13740   3.545   1.829   4.378 -0.1197 -2.1844  0.7082
  100DOPC  C21513741   3.415   2.004   4.326 -0.1373 -0.0229 -0.0540
  100DOPC  H15R13742   3.465   2.076   4.394 -0.4844 -0.9785  1.2377
  100DOPC  H15S13743   3.306   2.025   4.315  0.0621  0.4489 -1.3777
  100DOPC  C21613744   3.464   2.023   4.179  0.1554  0.4116  0.0475
  100DOPC  H16R13745   3.536   1.945   4.145  0.6144  0.7374  0.2578
  100DOPC  H16S13746   3.520   2.118   4.172  0.8272 -0.1065 -2.3609
  100DOPC  C21713747   3.359   2.045   4.062 -0.1213  0.6059 -0.3393
  100DOPC  H17R13748   3.290   2.125   4.097  0.0031  0.6638 -0.2263
  100DOPC  H17S13749   3.301   1.951   4.060  0.1181  0.4768 -1.2874
  100DOPC  C21813750   3.424   2.071   3.926 -0.4819 -0.1920  0.2139
  100DOPC  H18R13751   3.513   2.135   3.938 -0.4746  0.1782 -1.5372
  100DOPC  H18S13752   3.356   2.100   3.843 -0.0567 -0.0117 -0.0720
  100DOPC  H18T13753   3.460   1.973   3.888 -4.0454 -2.0663  1.1771
  100DOPC   C3313754   3.754   1.837   5.418  0.1173  0.4975  0.7988
  100DOPC   H3X13755   3.825   1.899   5.476 -0.1682  0.9202  0.6992
  100DOPC   H3Y13756   3.649   1.868   5.434 -0.1236 -0.0522  0.3347
  100DOPC   C3413757   3.771   1.862   5.271  0.2506 -0.0050  0.0073
  100DOPC   H4X13758   3.687   1.829   5.207 -1.7285  1.4428  1.7181
  100DOPC   H4Y13759   3.859   1.804   5.236 -0.5644 -2.1948  1.4145
  100DOPC   C3513760   3.768   2.015   5.256 -0.2776 -0.0846 -0.5904
  100DOPC   H5X13761   3.826   2.067   5.335 -0.0354  0.6553 -1.2297
  100DOPC   H5Y13762   3.660   2.041   5.254 -0.4013 -0.6055 -0.9345
  100DOPC   C3613763   3.813   2.062   5.117 -0.0982  0.4558  0.0983
  100DOPC   H6X13764   3.901   1.998   5.093 -0.7357 -0.8518  1.1735
  100DOPC   H6Y13765   3.735   2.050   5.039  1.7998 -1.1886 -1.6821
  100DOPC   C3713766   3.867   2.203   5.114 -0.5907 -0.7408  0.5795
  100DOPC   H7X13767   3.792   2.267   5.166  0.1705  0.6863 -0.0309
  100DOPC   H7Y13768   3.958   2.204   5.177 -0.9031 -2.6985  1.1441
  100DOPC   C3813769   3.885   2.259   4.971 -0.0225  0.4565  0.0337
  100DOPC   H8X13770   3.794   2.231   4.913 -1.6026  3.0589  1.0800
  100DOPC   H8Y13771   3.973   2.203   4.933  0.2964  1.9145 -1.4796
  100DOPC   C3913772   3.926   2.403   4.958  0.5133  0.9148 -0.1945
  100DOPC   H9X13773   3.973   2.431   5.053 -0.8773 -1.5192  1.2965
  100DOPC  C31013774   3.888   2.490   4.868 -0.2628  0.2595  0.5405
  100DOPC  H10X13775   3.919   2.595   4.867  1.7961 -0.2535 -2.2719
  100DOPC  C31113776   3.801   2.469   4.745 -0.5046 -0.4893 -0.5608
  100DOPC  H11X13777   3.835   2.375   4.697  2.2632 -0.6522  1.4770
  100DOPC  H11Y13778   3.808   2.551   4.670 -1.7055  0.9939  0.8715
  100DOPC  C31213779   3.649   2.453   4.771 -0.3163 -0.0782 -0.1428
  100DOPC  H12X13780   3.625   2.361   4.828  0.0508  0.5889  1.1286
  100DOPC  H12Y13781   3.595   2.464   4.674 -1.4296 -0.7251  0.3758
  100DOPC  C31313782   3.587   2.566   4.852  0.5375 -0.4421  0.8231
  100DOPC  H13X13783   3.509   2.523   4.919 -2.3518  1.6821 -0.9016
  100DOPC  H13Y13784   3.663   2.623   4.910 -0.5276  1.2421  0.6549
  100DOPC  C31413785   3.498   2.662   4.773 -0.6131 -0.1277 -0.1739
  100DOPC  H14X13786   3.451   2.615   4.685 -0.1466 -2.4977  0.7748
  100DOPC  H14Y13787   3.418   2.708   4.836 -0.3295 -0.4055  0.3944
  100DOPC  C31513788   3.590   2.774   4.718 -0.0580 -0.3435 -0.6471
  100DOPC  H15X13789   3.654   2.729   4.639 -0.2696  0.2662 -1.1787
  100DOPC  H15Y13790   3.656   2.812   4.799 -2.1760  0.7359  0.6549
  100DOPC  C31613791   3.507   2.888   4.664  0.5003  0.0662  0.3327
  100DOPC  H16X13792   3.438   2.919   4.745 -3.2623 -1.5403 -2.0178
  100DOPC  H16Y13793   3.586   2.960   4.631  0.1488  0.5172  0.4668
  100DOPC  C31713794   3.417   2.873   4.529  0.3926 -0.4396 -0.4349
  100DOPC  H17X13795   3.339   2.798   4.556 -0.1036  0.3849  0.5093
  100DOPC  H17Y13796   3.361   2.965   4.500 -0.8373  0.3547  3.6569
  100DOPC  C31813797   3.495   2.807   4.418  0.0051  0.3765 -0.2361
  100DOPC  H18X13798   3.581   2.876   4.400  0.7099  1.3307  5.1967
  100DOPC  H18Y13799   3.532   2.707   4.450  0.2844  0.0643 -1.4742
  100DOPC  H18Z13800   3.434   2.789   4.327  0.9029 -2.4467 -0.3918
  101DOPC     N13801   9.913   9.836   6.197 -0.0465 -0.2362  0.1472
  101DOPC   C1213802   9.802   9.730   6.223  0.4652 -0.5460 -0.3888
  101DOPC  H12A13803   9.817   9.684   6.319  0.6791 -1.9947 -1.0872
  101DOPC  H12B13804   9.817   9.643   6.161  1.7775 -0.2526 -0.5185
  101DOPC   C1313805   9.914   9.946   6.297 -0.1252 -0.2109 -0.1492
  101DOPC  H13A13806   9.927   9.912   6.399  0.6809  2.3823  0.7113
  101DOPC  H13B13807  10.004  10.002   6.278  1.3664 -1.7105  2.0531
  101DOPC  H13C13808   9.833  10.016   6.284 -0.0416 -0.2953 -1.2256
  101DOPC   C1413809   9.910   9.902   6.062 -0.7670  0.2735 -0.9090
  101DOPC  H14A13810   9.969   9.992   6.061  0.1704 -0.2895 -3.2542
  101DOPC  H14B13811   9.953   9.838   5.987  0.8329 -1.2970  1.2145
  101DOPC  H14C13812   9.807   9.915   6.033 -1.2056  3.3283  1.4280
  101DOPC   C1513813  10.049   9.766   6.206  0.1072  0.1492 -0.1793
  101DOPC  H15A13814  10.122   9.840   6.177  1.4024 -1.0388 -0.0556
  101DOPC  H15B13815  10.057   9.695   6.125  2.2995  1.0677 -0.8488
  101DOPC  H15C13816  10.066   9.713   6.298  0.4511 -1.6846 -1.2474
  101DOPC   C1113817   9.659   9.773   6.193  0.4162  0.0207  0.3912
  101DOPC  H11A13818   9.595   9.691   6.232  0.2165 -0.9383 -1.8118
  101DOPC  H11B13819   9.626   9.863   6.250 -0.9006  0.4083 -0.9027
  101DOPC     P13820   9.632   9.675   5.952 -0.4334  0.1386  0.2953
  101DOPC   O1313821   9.513   9.591   5.980  0.4641  0.0547  0.2434
  101DOPC   O1413822   9.763   9.611   5.952  0.5274  0.2675 -0.1343
  101DOPC   O1213823   9.635   9.799   6.051  0.1271 -0.3458 -0.0410
  101DOPC   O1113824   9.617   9.747   5.809  0.0002 -1.0093  0.0365
  101DOPC    C113825   9.684   9.866   5.766  0.2781 -0.5756  0.7024
  101DOPC    HA13826   9.785   9.825   5.742  0.2703 -1.0186  1.3885
  101DOPC    HB13827   9.685   9.944   5.846  0.9843  0.2630 -0.1003
  101DOPC    C213828   9.632   9.934   5.643  0.5702  0.6841 -0.0086
  101DOPC    HS13829   9.523   9.947   5.660  0.4527 -0.6796  0.3758
  101DOPC   O2113830   9.665   9.855   5.528  0.4362 -0.1071 -0.4000
  101DOPC   C2113831   9.569   9.762   5.494 -0.0590 -0.4291  0.1061
  101DOPC   O2213832   9.454   9.755   5.531 -0.5617 -0.1926  0.2059
  101DOPC   C2213833   9.621   9.660   5.389 -1.2228  0.1486 -0.1499
  101DOPC   H2R13834   9.542   9.584   5.369 -1.4137  0.1884  0.4412
  101DOPC   H2S13835   9.713   9.612   5.428 -1.9073  1.3028  3.1541
  101DOPC    C313836   9.691  10.075   5.619 -0.3270  0.0759  0.1011
  101DOPC    HX13837   9.798  10.081   5.648  0.2894 -1.7046 -1.6023
  101DOPC    HY13838   9.646  10.137   5.700  1.5910 -0.5674  1.7487
  101DOPC   O3113839   9.668  10.132   5.488  0.0539  0.3852  0.6433
  101DOPC   C3113840   9.546  10.169   5.463  0.2675  0.2405  0.2522
  101DOPC   O3213841   9.456  10.174   5.550 -0.0248  0.0142  0.5068
  101DOPC   C3213842   9.527  10.202   5.313  0.3730  0.4041 -0.2398
  101DOPC   H2X13843   9.501  10.309   5.299 -0.2442  0.4670  1.2672
  101DOPC   H2Y13844   9.618  10.174   5.256 -0.6496 -0.8564 -1.3262
  101DOPC   C2313845   9.651   9.724   5.251  0.6427 -0.3486 -0.6915
  101DOPC   H3R13846   9.709   9.817   5.267  0.7277 -0.5458  0.2376
  101DOPC   H3S13847   9.555   9.750   5.202  0.7436  1.9106  0.2007
  101DOPC   C2413848   9.721   9.639   5.149  0.0900 -0.5427 -0.5067
  101DOPC   H4R13849   9.684   9.535   5.157  1.3877 -0.9019  3.1645
  101DOPC   H4S13850   9.823   9.622   5.191  0.5324  1.6668 -0.5475
  101DOPC   C2513851   9.721   9.716   5.012  0.1404  0.0303 -0.0611
  101DOPC   H5R13852   9.762   9.819   5.022  1.8831 -0.6209 -0.1391
  101DOPC   H5S13853   9.620   9.727   4.968  0.7604  1.8200 -1.1557
  101DOPC   C2613854   9.774   9.627   4.902  0.5063  0.3990 -0.1233
  101DOPC   H6R13855   9.884   9.623   4.918  0.2687 -1.0735  1.4200
  101DOPC   H6S13856   9.742   9.666   4.803 -1.6645  0.2614  0.4697
  101DOPC   C2713857   9.728   9.473   4.908  0.1462  0.4367 -0.4305
  101DOPC   H7R13858   9.619   9.487   4.929  0.1015 -0.0929 -0.2784
  101DOPC   H7S13859   9.766   9.411   4.993  1.1114 -0.3048 -1.3820
  101DOPC   C2813860   9.762   9.396   4.779  0.9809 -0.3389 -0.0790
  101DOPC   H8R13861   9.723   9.460   4.697  0.3197  0.6746  0.9922
  101DOPC   H8S13862   9.711   9.297   4.783 -1.2148  0.7619  1.9680
  101DOPC   C2913863   9.912   9.386   4.760 -0.5246  0.3675 -0.3913
  101DOPC   H9R13864   9.960   9.334   4.845  0.2494 -0.4744 -1.3090
  101DOPC  C21013865   9.988   9.443   4.660  0.0355 -0.0068 -0.2326
  101DOPC  H10R13866  10.090   9.411   4.637  0.2913  0.6807 -0.0827
  101DOPC  C21113867   9.949   9.555   4.563 -0.1968 -0.2900  0.8682
  101DOPC  H11R13868  10.036   9.624   4.550 -0.7787  0.4177  0.6622
  101DOPC  H11S13869   9.872   9.627   4.598  0.5033  1.1629 -0.4123
  101DOPC  C21213870   9.925   9.507   4.418 -0.3894  0.5106  0.2637
  101DOPC  H12R13871  10.017   9.460   4.377 -0.7355  1.5843 -1.8917
  101DOPC  H12S13872   9.911   9.601   4.361  0.4911 -0.7716 -2.2402
  101DOPC  C21313873   9.793   9.427   4.404 -0.2432 -1.0326  0.2452
  101DOPC  H13R13874   9.712   9.502   4.417  0.5070  0.0710 -1.0519
  101DOPC  H13S13875   9.789   9.352   4.485 -2.0502 -1.0840  0.1462
  101DOPC  C21413876   9.771   9.378   4.258  0.0655 -0.0698  0.3588
  101DOPC  H14R13877   9.832   9.285   4.251  2.0701  1.0435  1.8348
  101DOPC  H14S13878   9.814   9.445   4.180 -0.9020  1.3464  1.0178
  101DOPC  C21513879   9.622   9.344   4.210  0.1981 -0.2903  0.0324
  101DOPC  H15R13880   9.557   9.431   4.230  1.7122  0.9992 -0.4036
  101DOPC  H15S13881   9.581   9.261   4.272  0.8089 -0.9910 -0.4828
  101DOPC  C21613882   9.614   9.296   4.058 -0.0247 -0.1556  0.5944
  101DOPC  H16R13883   9.644   9.190   4.043 -1.5693 -0.2832 -2.1379
  101DOPC  H16S13884   9.686   9.357   4.000  0.6290 -1.6845 -0.2614
  101DOPC  C21713885   9.469   9.298   4.001 -0.1273 -0.5368 -0.1916
  101DOPC  H17R13886   9.432   9.403   3.995 -2.1555 -1.1114  1.2319
  101DOPC  H17S13887   9.394   9.234   4.053 -0.0132  0.4880  1.2841
  101DOPC  C21813888   9.479   9.252   3.853 -0.4122  0.0177  0.3018
  101DOPC  H18R13889   9.529   9.154   3.840 -0.8481 -0.0155 -1.3527
  101DOPC  H18S13890   9.534   9.327   3.793 -0.2433  0.7904  1.3881
  101DOPC  H18T13891   9.376   9.239   3.813 -0.3835 -2.0169  0.7987
  101DOPC   C3313892   9.404  10.121   5.261  0.0720  0.3675 -0.4149
  101DOPC   H3X13893   9.325  10.112   5.338 -0.1585 -0.3723 -0.7334
  101DOPC   H3Y13894   9.431  10.016   5.236  1.2453  0.1948  1.3995
  101DOPC   C3413895   9.338  10.187   5.137 -0.0869  0.4006 -0.8558
  101DOPC   H4X13896   9.328  10.297   5.154 -0.0442  0.3383 -0.4248
  101DOPC   H4Y13897   9.237  10.146   5.117  0.6215 -2.7429  1.3483
  101DOPC   C3513898   9.422  10.182   5.008 -0.3736 -0.1374 -0.5592
  101DOPC   H5X13899   9.446  10.082   4.965  1.4303  1.4025 -3.4556
  101DOPC   H5Y13900   9.512  10.247   5.014  1.0430 -2.1471  2.2906
  101DOPC   C3613901   9.353  10.232   4.877  0.2799  0.2696 -1.1682
  101DOPC   H6X13902   9.261  10.171   4.858 -0.0665 -0.2295  1.6645
  101DOPC   H6Y13903   9.314  10.336   4.886 -2.6272 -0.8706  1.0758
  101DOPC   C3713904   9.452  10.215   4.761 -0.3734 -0.4455  0.2136
  101DOPC   H7X13905   9.536  10.282   4.788  0.2327 -1.7047  1.6087
  101DOPC   H7Y13906   9.493  10.112   4.768  1.8004  0.3991  0.7056
  101DOPC   C3813907   9.405  10.222   4.616  0.1160  0.0175 -0.9387
  101DOPC   H8X13908   9.322  10.148   4.613 -0.4948  0.5949  0.5465
  101DOPC   H8Y13909   9.491  10.178   4.560 -0.2491 -1.3851 -0.4323
  101DOPC   C3913910   9.366  10.358   4.574  0.3077  1.2161 -0.6964
  101DOPC   H9X13911   9.320  10.419   4.653 -0.4866  1.0430 -1.0123
  101DOPC  C31013912   9.380  10.410   4.445  0.0372 -0.1806 -0.5046
  101DOPC  H10X13913   9.353  10.517   4.440  0.9574  0.3178  2.5461
  101DOPC  C31113914   9.438  10.354   4.322  0.5885 -0.3531  0.1193
  101DOPC  H11X13915   9.487  10.254   4.328 -1.5833 -1.6316 -1.7478
  101DOPC  H11Y13916   9.522  10.421   4.294 -0.5468  0.5341 -1.2784
  101DOPC  C31213917   9.334  10.338   4.203 -0.6813 -0.5836 -0.0169
  101DOPC  H12X13918   9.383  10.299   4.111 -1.6237 -1.3081 -0.2303
  101DOPC  H12Y13919   9.289  10.438   4.186  0.6789  0.1829  0.7720
  101DOPC  C31313920   9.219  10.237   4.244  0.3479 -0.1655 -0.1574
  101DOPC  H13X13921   9.275  10.142   4.263  0.6975  0.0054 -0.3275
  101DOPC  H13Y13922   9.170  10.268   4.339  0.3191 -3.9200  1.2195
  101DOPC  C31413923   9.117  10.196   4.134  0.2492  0.0868 -0.0210
  101DOPC  H14X13924   9.166  10.169   4.038 -1.7072 -0.5765 -0.8944
  101DOPC  H14Y13925   9.064  10.106   4.172 -0.1778  0.9752  1.5968
  101DOPC  C31513926   9.005  10.294   4.118 -0.0565 -0.1586  0.8653
  101DOPC  H15X13927   9.046  10.396   4.102  1.1861 -0.9998 -1.7683
  101DOPC  H15Y13928   8.949  10.304   4.214 -0.7897 -1.2310  0.5683
  101DOPC  C31613929   8.899  10.258   4.011 -0.4400 -0.8928 -1.0739
  101DOPC  H16X13930   8.873  10.155   4.041  3.5938 -1.8647 -0.3401
  101DOPC  H16Y13931   8.807  10.319   4.017  1.0569  1.6690 -2.3705
  101DOPC  C31713932   8.950  10.283   3.867 -0.0031 -0.0290 -0.4450
  101DOPC  H17X13933   9.001  10.381   3.862  0.9880 -0.5921 -2.1042
  101DOPC  H17Y13934   9.037  10.216   3.847  0.1485  0.3660 -1.1360
  101DOPC  C31813935   8.840  10.274   3.769 -0.0821 -0.7210  0.1091
  101DOPC  H18X13936   8.765  10.196   3.795 -0.7355  0.6473  2.6567
  101DOPC  H18Y13937   8.788  10.372   3.765  2.8056  0.8869 -0.6788
  101DOPC  H18Z13938   8.879  10.245   3.669 -1.6237 -0.2545 -0.6729
  102DOPC     N13939   6.913   3.772   5.859  0.0465 -0.1291 -0.8177
  102DOPC   C1213940   6.841   3.768   5.724  0.4150 -0.2026  0.1945
  102DOPC  H12A13941   6.839   3.670   5.678 -0.1185  0.2467 -0.7943
  102DOPC  H12B13942   6.891   3.829   5.650 -0.5540  0.6498  0.2165
  102DOPC   C1313943   7.062   3.751   5.839  0.0223 -0.1741 -0.5229
  102DOPC  H13A13944   7.107   3.835   5.787 -1.0574  0.2087 -0.8687
  102DOPC  H13B13945   7.112   3.750   5.935  0.3128  2.8090 -0.5334
  102DOPC  H13C13946   7.090   3.661   5.786  0.2781  1.2115 -2.9186
  102DOPC   C1413947   6.853   3.670   5.954 -0.7598 -0.2572  0.1318
  102DOPC  H14A13948   6.843   3.576   5.902 -0.3019 -0.4938  0.4682
  102DOPC  H14B13949   6.924   3.656   6.034  0.6874  1.9592 -0.6855
  102DOPC  H14C13950   6.756   3.684   5.999  1.1718 -0.3537  4.9756
  102DOPC   C1513951   6.892   3.900   5.935  0.2244 -0.4272  0.5960
  102DOPC  H15A13952   6.788   3.925   5.950  0.7666  1.4185  1.6267
  102DOPC  H15B13953   6.942   3.987   5.894  2.0875 -1.4656  0.5682
  102DOPC  H15C13954   6.923   3.896   6.038 -0.9238  1.7139  1.0769
  102DOPC   C1113955   6.695   3.813   5.736  0.6818 -0.4873 -0.1237
  102DOPC  H11A13956   6.686   3.917   5.774  0.5960  0.8705 -3.5227
  102DOPC  H11B13957   6.669   3.825   5.629  1.0566  0.0543 -0.1609
  102DOPC     P13958   6.542   3.592   5.755  0.0975  0.3600  0.3182
  102DOPC   O1313959   6.395   3.599   5.785 -0.0180  0.2071 -0.8645
  102DOPC   O1413960   6.618   3.482   5.810 -0.3901 -0.3370 -0.2081
  102DOPC   O1213961   6.608   3.721   5.808 -0.6562  0.0415  0.0289
  102DOPC   O1113962   6.572   3.607   5.598 -0.0088  0.0186 -0.2894
  102DOPC    C113963   6.485   3.549   5.499  0.7214 -0.1077 -0.3924
  102DOPC    HA13964   6.509   3.581   5.396  1.0418 -2.1210 -0.9844
  102DOPC    HB13965   6.380   3.575   5.521  0.7374  0.7931 -1.3255
  102DOPC    C213966   6.489   3.398   5.500  0.1475  0.3893  0.0477
  102DOPC    HS13967   6.473   3.363   5.604  0.6683 -0.5399 -0.1744
  102DOPC   O2113968   6.620   3.358   5.462  0.2286 -0.0186  0.1295
  102DOPC   C2113969   6.664   3.237   5.493 -0.7195 -0.1808 -0.1738
  102DOPC   O2213970   6.608   3.153   5.562 -0.5264 -0.1104  0.3093
  102DOPC   C2213971   6.794   3.208   5.419  0.4257  0.0894  0.2810
  102DOPC   H2R13972   6.784   3.104   5.383  0.8817 -0.8410  2.6904
  102DOPC   H2S13973   6.877   3.231   5.489  0.6976  2.7848 -0.8081
  102DOPC    C313974   6.373   3.342   5.404  0.2743  0.1463 -0.2451
  102DOPC    HX13975   6.283   3.365   5.465  0.2672  2.7985 -1.1273
  102DOPC    HY13976   6.381   3.233   5.387 -2.3586 -0.2563  0.6746
  102DOPC   O3113977   6.364   3.405   5.276 -0.3744  0.0925 -0.3509
  102DOPC   C3113978   6.263   3.491   5.257 -0.5731 -0.2856 -0.4996
  102DOPC   O3213979   6.186   3.517   5.350 -0.2609 -0.1974  0.3864
  102DOPC   C3213980   6.259   3.563   5.121  0.4772 -0.0283  0.0229
  102DOPC   H2X13981   6.158   3.534   5.086  1.3586 -0.3930 -2.3733
  102DOPC   H2Y13982   6.268   3.673   5.130  0.4199 -0.1197  1.3546
  102DOPC   C2313983   6.802   3.288   5.285  0.6686 -0.0213 -0.5087
  102DOPC   H3R13984   6.900   3.259   5.240  0.6662 -1.0515  0.1373
  102DOPC   H3S13985   6.806   3.397   5.308  0.6886  0.0429 -0.8025
  102DOPC   C2413986   6.682   3.267   5.185 -0.6293  0.4941  0.3208
  102DOPC   H4R13987   6.586   3.308   5.225 -1.7797 -1.7892  0.0794
  102DOPC   H4S13988   6.673   3.158   5.164 -0.1109  0.8512 -2.0334
  102DOPC   C2513989   6.705   3.336   5.050  1.3767  0.0713  0.1293
  102DOPC   H5R13990   6.600   3.342   5.013  0.4361 -0.6191  2.4754
  102DOPC   H5S13991   6.757   3.271   4.977  0.4435  0.7722 -1.2095
  102DOPC   C2613992   6.767   3.476   5.053  0.1187 -0.0509  0.5062
  102DOPC   H6R13993   6.861   3.484   5.111  0.5318 -2.6204  0.3306
  102DOPC   H6S13994   6.700   3.538   5.116  0.5611  0.6083  0.3370
  102DOPC   C2713995   6.783   3.531   4.913 -0.7242 -0.1840  0.0935
  102DOPC   H7R13996   6.717   3.479   4.840 -0.7069 -1.9807  1.2937
  102DOPC   H7S13997   6.884   3.497   4.885 -0.5236  0.9624 -0.6363
  102DOPC   C2813998   6.779   3.682   4.908 -0.2824  0.0173  0.5194
  102DOPC   H8R13999   6.844   3.725   4.829  0.1680 -0.6138  0.5409
  102DOPC   H8S14000   6.827   3.713   5.004  0.1935 -0.0194  0.2961
  102DOPC   C2914001   6.636   3.733   4.902  0.6900  0.3090 -1.1127
  102DOPC   H9R14002   6.579   3.734   4.996  0.3287 -1.1981 -1.2887
  102DOPC  C21014003   6.578   3.791   4.798 -0.1639  0.3537  0.2671
  102DOPC  H10R14004   6.486   3.849   4.818 -0.7020 -0.3767 -0.0199
  102DOPC  C21114005   6.643   3.795   4.661 -0.2782 -0.4015  0.4378
  102DOPC  H11R14006   6.667   3.693   4.624 -0.4214 -0.2119 -0.1849
  102DOPC  H11S14007   6.740   3.848   4.666 -0.2418 -0.5716  1.7329
  102DOPC  C21214008   6.556   3.868   4.557  0.0433  0.0540  0.5238
  102DOPC  H12R14009   6.541   3.970   4.600 -0.3686 -0.7349  2.3091
  102DOPC  H12S14010   6.449   3.843   4.571 -0.3657  0.7354 -1.1040
  102DOPC  C21314011   6.601   3.871   4.413  0.2273  0.4239  0.3429
  102DOPC  H13R14012   6.513   3.911   4.357  0.0725 -1.5478 -0.9314
  102DOPC  H13S14013   6.625   3.770   4.373 -0.7648  0.3987 -0.2401
  102DOPC  C21414014   6.722   3.959   4.385  0.0820  0.5327  0.5514
  102DOPC  H14R14015   6.814   3.918   4.433  0.8865  2.0228  0.3396
  102DOPC  H14S14016   6.689   4.052   4.435 -0.4567  0.2013  0.8169
  102DOPC  C21514017   6.759   3.973   4.235  0.6386 -0.8236  0.1536
  102DOPC  H15R14018   6.813   4.070   4.233  0.2846 -0.5534  1.7661
  102DOPC  H15S14019   6.674   3.988   4.165  0.0823  0.3369  1.0287
  102DOPC  C21614020   6.847   3.862   4.174 -0.3873  0.4836 -0.1194
  102DOPC  H16R14021   6.803   3.835   4.076 -1.2492 -1.9455  0.8371
  102DOPC  H16S14022   6.811   3.770   4.225 -2.2632  1.5291  0.5032
  102DOPC  C21714023   6.996   3.891   4.182  0.6572 -0.4352 -0.3461
  102DOPC  H17R14024   7.024   3.943   4.277 -0.6436 -0.3262 -0.0037
  102DOPC  H17S14025   7.018   3.969   4.107 -0.9987  1.6174  1.1776
  102DOPC  C21814026   7.075   3.762   4.168 -0.7441 -0.1568  0.5312
  102DOPC  H18R14027   7.044   3.702   4.256 -0.9122  2.2553  2.2193
  102DOPC  H18S14028   7.184   3.786   4.172 -0.6043 -0.8931  1.8285
  102DOPC  H18T14029   7.054   3.701   4.078  1.7395 -1.5346  0.7943
  102DOPC   C3314030   6.357   3.506   5.022  1.2315  0.2568  0.2038
  102DOPC   H3X14031   6.353   3.395   5.022  1.7270  0.2322 -1.0620
  102DOPC   H3Y14032   6.462   3.542   5.029  2.2219 -2.3590 -0.0550
  102DOPC   C3414033   6.322   3.564   4.890 -0.6351 -0.1806  0.2751
  102DOPC   H4X14034   6.346   3.672   4.890  0.0941 -0.3396  0.0545
  102DOPC   H4Y14035   6.215   3.557   4.860 -0.5530 -3.1288  0.4067
  102DOPC   C3514036   6.388   3.478   4.780 -0.3408 -0.4913  0.0731
  102DOPC   H5X14037   6.365   3.371   4.799 -1.1904 -0.2746  0.3112
  102DOPC   H5Y14038   6.497   3.494   4.793 -0.6070  0.3142  1.5012
  102DOPC   C3614039   6.357   3.520   4.636  0.4501  0.5887  0.5828
  102DOPC   H6X14040   6.264   3.471   4.600  1.7079  0.2835 -2.5875
  102DOPC   H6Y14041   6.326   3.627   4.628 -1.8064 -0.0674 -0.2056
  102DOPC   C3714042   6.463   3.484   4.527  0.5233  0.2457 -0.5828
  102DOPC   H7X14043   6.558   3.511   4.578 -0.0640 -0.7152  1.1089
  102DOPC   H7Y14044   6.457   3.374   4.517 -2.3099  0.4771 -2.9798
  102DOPC   C3814045   6.438   3.538   4.390  1.1082  0.2643 -0.0990
  102DOPC   H8X14046   6.526   3.517   4.326  1.8618  0.5670  0.8218
  102DOPC   H8Y14047   6.432   3.649   4.391  0.8618  0.3447 -2.7222
  102DOPC   C3914048   6.312   3.481   4.336  0.4750  0.5839  0.9522
  102DOPC   H9X14049   6.223   3.518   4.390 -0.5273  1.1374 -1.0042
  102DOPC  C31014050   6.296   3.406   4.221  0.2439 -0.2020  0.1859
  102DOPC  H10X14051   6.193   3.379   4.193  0.8503 -0.3565 -2.0663
  102DOPC  C31114052   6.414   3.388   4.127  0.4458 -0.0488  0.7253
  102DOPC  H11X14053   6.394   3.297   4.065  1.9716  0.1350 -0.0711
  102DOPC  H11Y14054   6.505   3.356   4.182  0.2644 -1.2189  0.3827
  102DOPC  C31214055   6.450   3.511   4.038  0.0389  0.2053  0.1009
  102DOPC  H12X14056   6.439   3.605   4.096  1.3459  1.7646 -2.0396
  102DOPC  H12Y14057   6.371   3.519   3.960 -0.8042 -1.1389  0.7726
  102DOPC  C31314058   6.586   3.497   3.975 -0.1680  0.1366 -0.3278
  102DOPC  H13X14059   6.653   3.492   4.063 -2.8091  2.5972  2.0273
  102DOPC  H13Y14060   6.585   3.406   3.911  3.0177 -0.1921 -0.0496
  102DOPC  C31414061   6.615   3.611   3.881 -0.4468 -0.9866  0.0207
  102DOPC  H14X14062   6.532   3.611   3.808 -0.9346  0.3874  0.5368
  102DOPC  H14Y14063   6.607   3.705   3.941 -0.9091  0.2319 -1.8465
  102DOPC  C31514064   6.756   3.603   3.816  0.0668  0.2952 -0.2292
  102DOPC  H15X14065   6.765   3.523   3.740 -0.9462  1.4476 -1.6237
  102DOPC  H15Y14066   6.828   3.579   3.897  0.4957  1.3209 -0.2964
  102DOPC  C31614067   6.815   3.727   3.739  0.1868 -0.1827  0.1412
  102DOPC  H16X14068   6.828   3.821   3.797  3.2542 -0.4178 -0.0243
  102DOPC  H16Y14069   6.918   3.693   3.719 -0.0572 -0.6507 -0.3515
  102DOPC  C31714070   6.736   3.762   3.612 -0.3154  0.0256 -0.2369
  102DOPC  H17X14071   6.629   3.772   3.640  0.4466  2.5622  2.2858
  102DOPC  H17Y14072   6.776   3.859   3.576 -0.0693 -0.2636 -0.7487
  102DOPC  C31814073   6.762   3.668   3.489  0.6818  0.7233 -0.1261
  102DOPC  H18X14074   6.870   3.672   3.463  0.4815  2.5561 -0.7992
  102DOPC  H18Y14075   6.730   3.563   3.506  0.6220  0.8141  0.3575
  102DOPC  H18Z14076   6.700   3.720   3.413  0.0016  0.4554  0.2301
  103DOPC     N14077  10.104  12.064   6.285  0.2156  0.9241  0.7338
  103DOPC   C1214078  10.181  12.161   6.200 -0.1418  0.3868  0.3348
  103DOPC  H12A14079  10.152  12.262   6.224 -2.1561 -0.1421  0.2469
  103DOPC  H12B14080  10.148  12.145   6.098  0.9043 -1.2163  0.2051
  103DOPC   C1314081  10.141  11.911   6.254  0.0963 -0.0590 -0.5611
  103DOPC  H13A14082  10.064  11.856   6.306  0.3228 -0.1968 -0.3729
  103DOPC  H13B14083  10.133  11.889   6.148 -0.9524 -1.0131 -0.3039
  103DOPC  H13C14084  10.239  11.891   6.294  0.6100  2.1681 -0.5829
  103DOPC   C1414085   9.959  12.093   6.258 -0.2759 -0.2136 -0.6608
  103DOPC  H14A14086   9.932  12.079   6.154  2.4797  0.6667 -1.5965
  103DOPC  H14B14087   9.891  12.036   6.319 -0.5705  1.8949  1.0966
  103DOPC  H14C14088   9.945  12.196   6.287 -0.9372 -0.7010  0.8679
  103DOPC   C1514089  10.124  12.099   6.431  0.2036 -0.7124 -0.1592
  103DOPC  H15A14090  10.089  12.013   6.488  0.8584 -0.6682  0.3235
  103DOPC  H15B14091  10.060  12.184   6.448  2.7147  1.3450 -0.3632
  103DOPC  H15C14092  10.224  12.128   6.460 -0.3568  2.1801 -0.8781
  103DOPC   C1114093  10.339  12.162   6.220  0.2231  0.5094  0.4131
  103DOPC  H11A14094  10.375  12.060   6.245  0.9141  0.5446 -0.3909
  103DOPC  H11B14095  10.378  12.175   6.117 -0.5672  0.0305  0.0393
  103DOPC     P14096  10.388  12.408   6.293 -0.1453  0.1137  0.3365
  103DOPC   O1314097  10.499  12.458   6.377  0.4594  0.2164  0.1448
  103DOPC   O1414098  10.253  12.470   6.311 -0.5358 -0.1091  0.4170
  103DOPC   O1214099  10.386  12.254   6.320  0.3092  0.8767 -0.5052
  103DOPC   O1114100  10.433  12.407   6.139  0.1874  0.2513 -0.0839
  103DOPC    C114101  10.523  12.516   6.097 -0.2140  0.1560 -0.6437
  103DOPC    HA14102  10.627  12.490   6.125 -1.0907 -4.3901 -0.7309
  103DOPC    HB14103  10.500  12.615   6.141  0.2985  0.3601 -0.8354
  103DOPC    C214104  10.517  12.523   5.942 -0.0986 -0.2843 -0.6487
  103DOPC    HS14105  10.597  12.587   5.901 -2.0301  1.3890 -1.9632
  103DOPC   O2114106  10.389  12.572   5.902 -0.3888 -0.3487 -0.1906
  103DOPC   C2114107  10.385  12.712   5.896 -0.3727  0.4930  0.2656
  103DOPC   O2214108  10.472  12.784   5.932 -0.9305  0.1793  0.3638
  103DOPC   C2214109  10.241  12.747   5.846  0.9235  0.3090 -0.4779
  103DOPC   H2R14110  10.194  12.797   5.933  1.7072 -0.3280  0.3324
  103DOPC   H2S14111  10.188  12.652   5.823 -1.5371  1.7124 -0.8988
  103DOPC    C314112  10.533  12.379   5.882  0.3711 -0.0138 -0.3505
  103DOPC    HX14113  10.450  12.317   5.923 -0.0942  0.2167 -0.9307
  103DOPC    HY14114  10.630  12.344   5.923 -0.6119 -1.0441  1.2077
  103DOPC   O3114115  10.526  12.383   5.737 -0.7786  0.3286 -0.6067
  103DOPC   C3114116  10.406  12.349   5.684  0.2236  0.0145  0.4418
  103DOPC   O3214117  10.304  12.330   5.748 -0.4233 -0.1642  0.1273
  103DOPC   C3214118  10.398  12.348   5.525 -0.2403  0.6554  0.7328
  103DOPC   H2X14119  10.461  12.428   5.482 -1.0247  0.7186 -0.3379
  103DOPC   H2Y14120  10.435  12.250   5.486  0.9399  0.0964  3.0655
  103DOPC   C2314121  10.237  12.833   5.724 -1.3298  0.2203  0.6782
  103DOPC   H3R14122  10.321  12.905   5.718 -0.7363 -0.4930  0.1624
  103DOPC   H3S14123  10.145  12.893   5.711 -1.0889  0.4890  0.1974
  103DOPC   C2414124  10.272  12.756   5.591  0.5308  0.2758  0.1162
  103DOPC   H4R14125  10.195  12.677   5.584 -1.0169  1.7869 -0.7204
  103DOPC   H4S14126  10.377  12.722   5.604  0.8291  1.7935  2.1405
  103DOPC   C2514127  10.272  12.851   5.471 -0.8062 -0.0499  0.6615
  103DOPC   H5R14128  10.353  12.926   5.485 -2.2392  1.7870 -0.5762
  103DOPC   H5S14129  10.182  12.914   5.461 -0.1515  0.8267  0.2092
  103DOPC   C2614130  10.293  12.772   5.340 -0.7854 -0.3614 -0.0648
  103DOPC   H6R14131  10.247  12.828   5.256 -0.4860  2.4648  1.5478
  103DOPC   H6S14132  10.247  12.671   5.340  1.3411 -1.4996  3.5956
  103DOPC   C2714133  10.434  12.732   5.327 -0.1163  0.0088  0.5643
  103DOPC   H7R14134  10.463  12.669   5.414 -1.1984 -2.7069 -0.9156
  103DOPC   H7S14135  10.505  12.817   5.320  2.4330 -1.8197  2.3747
  103DOPC   C2814136  10.454  12.651   5.202 -0.7878 -0.0395 -0.2043
  103DOPC   H8R14137  10.387  12.563   5.213  1.0699 -1.4596  0.3104
  103DOPC   H8S14138  10.558  12.612   5.212 -0.1891  1.6240  0.4787
  103DOPC   C2914139  10.444  12.728   5.069 -0.1722  0.0523 -0.2991
  103DOPC   H9R14140  10.537  12.775   5.035 -0.8770  1.6781 -0.0806
  103DOPC  C21014141  10.337  12.725   4.987 -0.2019 -0.4443 -0.0404
  103DOPC  H10R14142  10.329  12.771   4.887 -2.6309  1.0487  0.7384
  103DOPC  C21114143  10.211  12.644   5.017 -0.0336 -0.3905  0.1451
  103DOPC  H11R14144  10.124  12.705   4.984  0.4363 -0.1670 -0.7068
  103DOPC  H11S14145  10.201  12.624   5.126  1.1967  0.7561  0.4946
  103DOPC  C21214146  10.220  12.510   4.934 -0.1402 -1.4134  0.2911
  103DOPC  H12R14147  10.125  12.457   4.957 -0.8760 -0.5987 -0.8255
  103DOPC  H12S14148  10.315  12.462   4.967  0.5372 -0.7403 -0.6561
  103DOPC  C21314149  10.226  12.532   4.785 -0.0813  0.0835  0.0571
  103DOPC  H13R14150  10.223  12.432   4.738  0.8616  1.1628 -2.4780
  103DOPC  H13S14151  10.315  12.584   4.744  1.3840 -0.8566  1.8724
  103DOPC  C21414152  10.097  12.601   4.739  0.2098 -0.3907  0.3290
  103DOPC  H14R14153  10.077  12.704   4.776 -0.5934  0.1267 -1.4327
  103DOPC  H14S14154  10.015  12.531   4.768 -2.9618  2.5396 -0.8747
  103DOPC  C21514155  10.098  12.606   4.578  0.3434  0.0898 -0.1534
  103DOPC  H15R14156  10.166  12.525   4.545  0.6202 -0.2027  1.0837
  103DOPC  H15S14157  10.142  12.700   4.539  0.2645  0.1985  0.0153
  103DOPC  C21614158   9.968  12.592   4.500 -0.0159  1.0837 -1.0471
  103DOPC  H16R14159   9.894  12.667   4.534  0.7389  1.3025  0.1708
  103DOPC  H16S14160   9.918  12.495   4.520  0.0925  1.4680  1.4162
  103DOPC  C21714161   9.976  12.612   4.346 -0.5208 -0.1467  0.5120
  103DOPC  H17R14162   9.893  12.559   4.294 -0.7083  0.6497 -0.0147
  103DOPC  H17S14163  10.066  12.563   4.301 -0.2706  0.4503  0.3536
  103DOPC  C21814164   9.973  12.757   4.293 -0.8297 -0.7005  0.3167
  103DOPC  H18R14165   9.893  12.812   4.346  0.5247 -1.5319  3.4276
  103DOPC  H18S14166   9.958  12.753   4.183  0.2499  0.6302  0.0928
  103DOPC  H18T14167  10.060  12.819   4.324  0.3400 -1.1484 -1.8171
  103DOPC   C3314168  10.260  12.353   5.489 -0.3919 -0.1722  1.1023
  103DOPC   H3X14169  10.214  12.451   5.517  1.5240  1.6235 -1.5631
  103DOPC   H3Y14170  10.214  12.266   5.540  3.4042 -0.5106  4.4705
  103DOPC   C3414171  10.229  12.336   5.340 -0.1534 -0.1927 -0.3563
  103DOPC   H4X14172  10.287  12.247   5.308 -0.2908 -1.6666  3.0075
  103DOPC   H4Y14173  10.273  12.428   5.295  2.7012 -0.3824  1.7973
  103DOPC   C3514174  10.083  12.318   5.311  0.5458 -0.2034  0.0286
  103DOPC   H5X14175  10.036  12.247   5.382 -0.1935 -0.5523 -0.7947
  103DOPC   H5Y14176  10.061  12.263   5.218 -3.3653 -1.7362  1.6669
  103DOPC   C3614177  10.002  12.450   5.315  0.1485 -0.5924 -0.4444
  103DOPC   H6X14178  10.029  12.516   5.400  0.6937 -0.8236 -0.4349
  103DOPC   H6Y14179  10.036  12.511   5.228  1.6534 -1.0034 -0.1756
  103DOPC   C3714180   9.848  12.439   5.292  0.4933  0.0962  0.8870
  103DOPC   H7X14181   9.828  12.360   5.215  0.9342 -0.4474  1.3225
  103DOPC   H7Y14182   9.810  12.392   5.385  2.2551 -0.6600  1.2575
  103DOPC   C3814183   9.777  12.573   5.254 -0.0570  0.2967  0.0763
  103DOPC   H8X14184   9.778  12.639   5.343 -1.9037 -0.2762  0.5591
  103DOPC   H8Y14185   9.673  12.547   5.224  0.5582 -0.3663 -1.6458
  103DOPC   C3914186   9.834  12.652   5.142  0.2451 -0.5859  1.0437
  103DOPC   H9X14187   9.894  12.740   5.170  1.3118 -1.3778  1.3209
  103DOPC  C31014188   9.842  12.609   5.011  0.0801 -0.0393 -0.0465
  103DOPC  H10X14189   9.875  12.684   4.937 -0.0519 -0.6473 -0.7312
  103DOPC  C31114190   9.790  12.476   4.951 -0.0923 -0.1256  0.6118
  103DOPC  H11X14191   9.754  12.397   5.020  1.0155 -1.2368 -0.0488
  103DOPC  H11Y14192   9.877  12.429   4.900  0.1062  0.1692  0.6728
  103DOPC  C31214193   9.681  12.480   4.841  0.3697  0.1677  1.0165
  103DOPC  H12X14194   9.716  12.554   4.766 -1.4738 -0.0471 -0.1078
  103DOPC  H12Y14195   9.585  12.516   4.883 -0.0422  1.0904 -0.6260
  103DOPC  C31314196   9.650  12.348   4.776 -0.5131 -0.1272 -0.2652
  103DOPC  H13X14197   9.636  12.275   4.859 -2.2996  1.2670  0.7378
  103DOPC  H13Y14198   9.550  12.349   4.729 -1.0249 -1.8170  0.6805
  103DOPC  C31414199   9.745  12.306   4.672 -0.5156  0.2908 -0.6427
  103DOPC  H14X14200   9.779  12.405   4.632  2.2421 -0.1032  0.4557
  103DOPC  H14Y14201   9.837  12.263   4.718 -0.3945  0.7757 -0.4138
  103DOPC  C31514202   9.689  12.214   4.570  0.1298  1.0581  0.0097
  103DOPC  H15X14203   9.594  12.255   4.529 -1.0454  1.5595  3.0164
  103DOPC  H15Y14204   9.655  12.120   4.618 -0.6126  1.2076 -0.2233
  103DOPC  C31614205   9.789  12.172   4.450  0.3264 -0.5076  0.1129
  103DOPC  H16X14206   9.852  12.259   4.424 -1.0793  1.0166  1.5176
  103DOPC  H16Y14207   9.867  12.110   4.499  1.4789  1.8059  1.3798
  103DOPC  C31714208   9.732  12.086   4.338  0.5964 -0.1540 -0.4527
  103DOPC  H17X14209   9.807  12.037   4.272 -0.3032 -0.9258 -0.9170
  103DOPC  H17Y14210   9.677  11.999   4.379  1.3027  0.3981  1.8274
  103DOPC  C31814211   9.660  12.183   4.249 -0.5349 -0.2827  0.1931
  103DOPC  H18X14212   9.616  12.265   4.309  0.9074 -0.4287  1.5292
  103DOPC  H18Y14213   9.731  12.235   4.180 -0.0744  0.3896  1.1535
  103DOPC  H18Z14214   9.579  12.139   4.187  0.2165  0.7110 -1.6024
  104DOPC     N14215   1.277   3.713   5.243 -0.7977  0.2102  0.5097
  104DOPC   C1214216   1.193   3.811   5.303  0.6938 -0.1763 -0.5227
  104DOPC  H12A14217   1.154   3.772   5.395 -1.0202  2.9064  0.2134
  104DOPC  H12B14218   1.111   3.832   5.236  0.8740  0.7615 -0.4727
  104DOPC   C1314219   1.197   3.591   5.201 -0.8308 -0.9047 -0.6650
  104DOPC  H13A14220   1.121   3.612   5.127  0.8088 -0.1247 -2.1918
  104DOPC  H13B14221   1.253   3.519   5.143 -1.3012 -1.3244 -0.6076
  104DOPC  H13C14222   1.159   3.535   5.286  0.5688  0.5521  0.9915
  104DOPC   C1414223   1.392   3.676   5.331  0.1461 -0.2415  0.2008
  104DOPC  H14A14224   1.352   3.613   5.410 -2.9868  1.4426  0.0904
  104DOPC  H14B14225   1.466   3.621   5.275 -0.2880  0.5231 -1.1453
  104DOPC  H14C14226   1.434   3.759   5.386 -0.5233 -0.3300  0.8681
  104DOPC   C1514227   1.339   3.775   5.119 -0.5660 -0.0741 -0.0653
  104DOPC  H15A14228   1.266   3.803   5.046  0.7050 -0.1908 -1.4319
  104DOPC  H15B14229   1.404   3.700   5.076 -0.3707 -0.4443  0.8386
  104DOPC  H15C14230   1.398   3.864   5.134 -1.2924  0.3353  0.3898
  104DOPC   C1114231   1.250   3.947   5.345 -0.6848  0.2043  0.5465
  104DOPC  H11A14232   1.340   3.933   5.409  0.6063  1.2255 -0.9639
  104DOPC  H11B14233   1.284   4.003   5.256 -2.0355  0.7563  0.3576
  104DOPC     P14234   1.057   4.125   5.335  0.2912 -0.0118  0.3924
  104DOPC   O1314235   0.972   4.199   5.432 -0.8568 -0.0129 -0.1938
  104DOPC   O1414236   0.987   4.047   5.236 -0.2976  0.5586  0.0798
  104DOPC   O1214237   1.153   4.022   5.419  0.8532 -0.1908  0.2308
  104DOPC   O1114238   1.159   4.221   5.276 -0.0446  0.1116  0.1132
  104DOPC    C114239   1.125   4.357   5.232  0.7776 -0.3963  0.0751
  104DOPC    HA14240   1.202   4.431   5.264 -0.2756  1.1088 -0.7175
  104DOPC    HB14241   1.028   4.395   5.272  0.4392 -0.0775 -1.0205
  104DOPC    C214242   1.116   4.359   5.077 -0.4776 -0.5928 -0.9043
  104DOPC    HS14243   1.100   4.464   5.041  1.0551  0.9200  2.4499
  104DOPC   O2114244   1.028   4.267   5.019  0.9361 -0.6003 -0.1525
  104DOPC   C2114245   0.900   4.297   5.035  0.0288 -0.3432 -0.6983
  104DOPC   O2214246   0.857   4.404   5.077 -0.0016 -0.0395  0.2569
  104DOPC   C2214247   0.815   4.189   4.982 -0.2805 -0.3096  0.1108
  104DOPC   H2R14248   0.862   4.091   5.006 -0.0196  0.3479  2.6326
  104DOPC   H2S14249   0.804   4.197   4.872  1.0531  3.5866  0.1185
  104DOPC    C314250   1.253   4.319   5.022 -0.1421 -0.5821 -0.2480
  104DOPC    HX14251   1.277   4.219   5.063 -3.6472 -1.6432 -0.4592
  104DOPC    HY14252   1.335   4.385   5.056 -2.2895  1.8171  0.6354
  104DOPC   O3114253   1.255   4.315   4.880  0.2797 -0.1152  0.2182
  104DOPC   C3114254   1.269   4.203   4.817 -0.3707 -0.0552 -0.5272
  104DOPC   O3214255   1.274   4.094   4.859 -0.3193  0.4534 -0.5044
  104DOPC   C3214256   1.272   4.210   4.669 -0.7451 -0.1480  0.4894
  104DOPC   H2X14257   1.367   4.261   4.642 -0.9361  0.9819  1.8744
  104DOPC   H2Y14258   1.288   4.105   4.635 -1.5998 -0.3983  0.8424
  104DOPC   C2314259   0.678   4.167   5.055 -0.5287 -0.5282 -0.0129
  104DOPC   H3R14260   0.619   4.259   5.074 -1.2899 -1.0110 -0.0191
  104DOPC   H3S14261   0.708   4.140   5.159 -0.7730  4.0122  1.5003
  104DOPC   C2414262   0.592   4.070   4.977  0.0635  0.6900 -0.1003
  104DOPC   H4R14263   0.546   3.991   5.039  1.5581  0.3612  0.6281
  104DOPC   H4S14264   0.645   4.005   4.905 -0.1578  2.2077 -1.6990
  104DOPC   C2514265   0.493   4.151   4.887  0.2138  0.1167  0.4545
  104DOPC   H5R14266   0.554   4.237   4.855  0.1043  0.1359  0.2954
  104DOPC   H5S14267   0.401   4.187   4.938 -0.3980 -2.4598  1.3364
  104DOPC   C2614268   0.436   4.080   4.759 -0.8279  0.3836  0.2673
  104DOPC   H6R14269   0.359   4.008   4.795  0.6226 -1.7220 -0.6710
  104DOPC   H6S14270   0.511   4.017   4.708 -0.6253  0.1459  0.8537
  104DOPC   C2714271   0.371   4.176   4.659 -0.8137  0.9207 -0.2322
  104DOPC   H7R14272   0.431   4.270   4.657  0.1674  0.4477  2.4977
  104DOPC   H7S14273   0.268   4.190   4.697 -1.0221 -3.1792  1.1177
  104DOPC   C2814274   0.359   4.115   4.520  0.6285  0.1526  0.3613
  104DOPC   H8R14275   0.290   4.029   4.523 -0.0961  0.6351 -1.3275
  104DOPC   H8S14276   0.457   4.063   4.506  0.7423 -0.2472  2.3584
  104DOPC   C2914277   0.326   4.204   4.400  0.8135  0.2240 -0.0078
  104DOPC   H9R14278   0.221   4.215   4.371  0.7729 -1.6270 -0.7603
  104DOPC  C21014279   0.411   4.247   4.311  0.5162  0.3186 -0.3671
  104DOPC  H10R14280   0.372   4.301   4.224 -0.1617  0.0613 -0.2270
  104DOPC  C21114281   0.558   4.229   4.311  0.5568 -0.1858  0.0534
  104DOPC  H11R14282   0.598   4.232   4.207  2.2558 -0.7629  0.6641
  104DOPC  H11S14283   0.583   4.127   4.347 -1.6971 -0.3589  1.3327
  104DOPC  C21214284   0.638   4.333   4.395  0.4355 -0.0599 -0.4690
  104DOPC  H12R14285   0.728   4.280   4.431  0.1679  0.0462  0.3853
  104DOPC  H12S14286   0.582   4.362   4.486  1.8351 -0.4371  0.5357
  104DOPC  C21314287   0.678   4.453   4.314 -0.1958 -0.2559  0.0600
  104DOPC  H13R14288   0.584   4.501   4.280 -0.3308 -1.6599 -1.7609
  104DOPC  H13S14289   0.720   4.418   4.217 -1.8031  1.0988 -1.1897
  104DOPC  C21414290   0.793   4.533   4.375  0.2280 -0.7581 -0.2234
  104DOPC  H14R14291   0.817   4.604   4.293 -2.5803 -1.5388 -1.8314
  104DOPC  H14S14292   0.878   4.463   4.391  1.2414  0.2638 -1.0323
  104DOPC  C21514293   0.750   4.598   4.507 -0.3372  0.3696 -0.1923
  104DOPC  H15R14294   0.743   4.516   4.581 -0.4743  0.8693  0.3602
  104DOPC  H15S14295   0.649   4.639   4.489 -0.0683  0.9302 -0.4689
  104DOPC  C21614296   0.850   4.706   4.550 -0.4648 -0.5353  0.0997
  104DOPC  H16R14297   0.808   4.751   4.643  0.4364 -1.4302  0.9627
  104DOPC  H16S14298   0.844   4.794   4.482 -2.9895  0.2676  1.2460
  104DOPC  C21714299   0.987   4.653   4.576 -0.3760 -0.2427  0.4972
  104DOPC  H17R14300   1.035   4.608   4.486  0.2046  2.1940 -0.4967
  104DOPC  H17S14301   0.974   4.577   4.656 -1.6838  0.6024  1.1142
  104DOPC  C21814302   1.086   4.761   4.627  0.3585  0.1537 -0.1034
  104DOPC  H18R14303   1.063   4.782   4.733 -0.5105 -1.9643  0.1780
  104DOPC  H18S14304   1.072   4.853   4.567  2.5251  0.5832 -0.0257
  104DOPC  H18T14305   1.193   4.729   4.625  1.3196  2.9080  1.6311
  104DOPC   C3314306   1.153   4.288   4.608  0.6511  0.4036  0.2420
  104DOPC   H3X14307   1.144   4.395   4.638 -0.4426  1.6471 -3.8844
  104DOPC   H3Y14308   1.056   4.246   4.641  0.6991  0.1057  0.0086
  104DOPC   C3414309   1.152   4.272   4.455  0.7908 -0.3474  0.1277
  104DOPC   H4X14310   1.055   4.321   4.429 -0.0956 -2.8893 -1.7224
  104DOPC   H4Y14311   1.149   4.167   4.419 -0.4889  0.1393 -1.2659
  104DOPC   C3514312   1.251   4.369   4.389 -0.3811  0.4339 -0.3402
  104DOPC   H5X14313   1.345   4.311   4.380  1.2684  2.8291  0.3607
  104DOPC   H5Y14314   1.276   4.466   4.437  1.1483  0.0624 -0.3056
  104DOPC   C3614315   1.196   4.396   4.249  0.7633  0.4206  0.4014
  104DOPC   H6X14316   1.094   4.437   4.237  0.4799 -0.2839  0.3282
  104DOPC   H6Y14317   1.262   4.471   4.200  1.5624 -1.0346 -0.8484
  104DOPC   C3714318   1.193   4.277   4.152  0.6890  0.0034 -0.1549
  104DOPC   H7X14319   1.292   4.225   4.153  0.5229 -0.3248  1.6467
  104DOPC   H7Y14320   1.122   4.201   4.189  0.1974 -0.8691 -2.6634
  104DOPC   C3814321   1.148   4.322   4.010  0.6220  0.3309 -1.1333
  104DOPC   H8X14322   1.218   4.400   3.974  1.4043  0.1236 -0.0943
  104DOPC   H8Y14323   1.057   4.386   4.013  1.2696  1.2445  0.4022
  104DOPC   C3914324   1.131   4.206   3.910 -0.5222 -0.4752 -0.4643
  104DOPC   H9X14325   1.225   4.163   3.873  0.1655  1.3078 -0.9277
  104DOPC  C31014326   1.013   4.165   3.846  0.2104  0.3866  0.0922
  104DOPC  H10X14327   1.010   4.087   3.769  0.4911  0.8066 -0.3487
  104DOPC  C31114328   0.875   4.224   3.868 -0.4336  0.4145  0.0160
  104DOPC  H11X14329   0.829   4.240   3.768  0.0475  2.8405  0.1090
  104DOPC  H11Y14330   0.884   4.326   3.910  0.4458  0.1789  0.4106
  104DOPC  C31214331   0.799   4.137   3.968  0.3649 -0.0376 -0.2525
  104DOPC  H12X14332   0.711   4.199   3.994  0.4512  1.7173 -3.6168
  104DOPC  H12Y14333   0.862   4.110   4.056 -0.8320 -0.4558  0.5044
  104DOPC  C31314334   0.738   4.006   3.920 -0.7167 -0.5354 -0.0896
  104DOPC  H13X14335   0.812   3.936   3.876 -0.5774 -1.0081  0.8831
  104DOPC  H13Y14336   0.695   3.950   4.006  2.8453 -2.2106  0.8176
  104DOPC  C31414337   0.632   4.017   3.807  1.0387 -0.1544 -0.1187
  104DOPC  H14X14338   0.664   4.080   3.721  0.6025 -1.1728 -1.0654
  104DOPC  H14Y14339   0.601   3.919   3.764  0.6692 -0.3292  0.5348
  104DOPC  C31514340   0.490   4.071   3.849 -0.4687  0.4942 -0.4400
  104DOPC  H15X14341   0.508   4.171   3.895  0.2576 -0.4626  1.4911
  104DOPC  H15Y14342   0.440   4.014   3.931  0.8641  1.7432  1.3189
  104DOPC  C31614343   0.392   4.084   3.729 -0.2651  0.7355 -0.5188
  104DOPC  H16X14344   0.427   4.167   3.665  1.4548  0.0389 -0.5523
  104DOPC  H16Y14345   0.390   3.989   3.671 -3.4103  1.7752 -2.3628
  104DOPC  C31714346   0.253   4.116   3.783  0.2125  0.6043 -0.8494
  104DOPC  H17X14347   0.175   4.090   3.708  1.5710  0.4365 -2.2758
  104DOPC  H17Y14348   0.235   4.039   3.861  0.0085  1.1370 -0.3641
  104DOPC  C31814349   0.246   4.258   3.843  0.1859 -0.1587 -0.7407
  104DOPC  H18X14350   0.154   4.276   3.903  1.6498  0.3746  1.4431
  104DOPC  H18Y14351   0.330   4.277   3.913 -1.1463 -0.3770  0.9693
  104DOPC  H18Z14352   0.253   4.334   3.761  0.9899 -0.5827 -1.0767
  105DOPC     N14353   0.845   6.376   5.775  0.4719  0.9033 -0.6805
  105DOPC   C1214354   0.790   6.322   5.641  0.2955  0.0755  0.0213
  105DOPC  H12A14355   0.718   6.396   5.608 -1.1931 -0.3648  2.0993
  105DOPC  H12B14356   0.737   6.230   5.662  1.9786 -0.6765  1.1703
  105DOPC   C1314357   0.737   6.368   5.882 -0.1553 -0.5727  0.2457
  105DOPC  H13A14358   0.648   6.416   5.843 -0.4141 -0.0653  1.4173
  105DOPC  H13B14359   0.707   6.266   5.901 -0.5726 -0.6666 -0.8262
  105DOPC  H13C14360   0.767   6.413   5.975 -0.3737 -1.9112  0.9952
  105DOPC   C1414361   0.878   6.521   5.753 -0.2341  0.4599 -0.0358
  105DOPC  H14A14362   0.911   6.577   5.839 -1.8398 -0.0877  0.9646
  105DOPC  H14B14363   0.950   6.521   5.672 -1.5459 -3.5532 -1.4407
  105DOPC  H14C14364   0.798   6.584   5.717  0.7760  0.6133 -2.1883
  105DOPC   C1514365   0.961   6.301   5.836  0.5227 -0.3521  0.2497
  105DOPC  H15A14366   1.001   6.354   5.921  0.8602 -0.9040  0.4414
  105DOPC  H15B14367   1.034   6.288   5.757 -0.5624  0.3488 -0.9018
  105DOPC  H15C14368   0.933   6.203   5.873 -0.7889 -0.2663 -0.4382
  105DOPC   C1114369   0.883   6.287   5.518 -0.0938 -0.8991  0.0245
  105DOPC  H11A14370   0.829   6.252   5.427  1.1341  0.7280 -1.3993
  105DOPC  H11B14371   0.926   6.387   5.497  1.2549 -1.4090  0.2564
  105DOPC     P14372   0.964   6.047   5.581  0.3526 -0.2582  0.2215
  105DOPC   O1314373   0.830   6.017   5.634  0.5815 -0.4599  0.1268
  105DOPC   O1414374   1.084   5.998   5.654  0.0751 -0.2995  0.0063
  105DOPC   O1214375   0.990   6.205   5.557  0.4519  0.2683 -0.2856
  105DOPC   O1114376   0.969   5.997   5.429  0.2696 -0.0213  0.1082
  105DOPC    C114377   1.089   6.010   5.354 -0.0047  0.0963  0.8132
  105DOPC    HA14378   1.083   5.932   5.275 -1.2685  0.3129  0.6833
  105DOPC    HB14379   1.181   5.985   5.412  0.1136 -2.6987 -0.4479
  105DOPC    C214380   1.098   6.146   5.274 -0.1219 -0.2063 -0.2718
  105DOPC    HS14381   1.091   6.227   5.350  2.6913 -0.2890  0.2004
  105DOPC   O2114382   0.986   6.148   5.185 -0.0315  0.1100  0.0636
  105DOPC   C2114383   0.981   6.264   5.120  0.0720  0.1268 -0.0733
  105DOPC   O2214384   1.029   6.367   5.160 -0.3043  0.2383  0.0048
  105DOPC   C2214385   0.883   6.246   5.004  0.9573 -0.1674  0.3376
  105DOPC   H2R14386   0.815   6.334   5.014  0.2654 -0.2714 -2.5374
  105DOPC   H2S14387   0.819   6.157   5.020 -1.6182  1.6750  0.8852
  105DOPC    C314388   1.233   6.166   5.204  0.2000 -0.6651 -0.1009
  105DOPC    HX14389   1.320   6.152   5.273  0.8701  0.2974 -0.7229
  105DOPC    HY14390   1.246   6.268   5.163  0.6319 -0.5707  0.2556
  105DOPC   O3114391   1.234   6.087   5.084 -0.4621 -0.1499 -0.4946
  105DOPC   C3114392   1.329   5.996   5.079  0.1180  0.7265 -0.5810
  105DOPC   O3214393   1.397   5.954   5.171 -0.3113 -0.0857 -0.5266
  105DOPC   C3214394   1.331   5.948   4.939 -0.7546 -0.3921  0.2746
  105DOPC   H2X14395   1.396   5.858   4.925 -0.8906 -0.6314  1.0898
  105DOPC   H2Y14396   1.231   5.908   4.916 -0.3048 -2.6909  1.8897
  105DOPC   C2314397   0.949   6.242   4.871  0.1290  0.5845  0.4794
  105DOPC   H3R14398   1.017   6.154   4.870  1.3752  1.4800  1.7868
  105DOPC   H3S14399   1.011   6.333   4.856  2.6065 -1.1827 -0.6125
  105DOPC   C2414400   0.845   6.240   4.750 -0.1983  0.4295  0.5097
  105DOPC   H4R14401   0.793   6.338   4.756 -0.0462  0.4311  3.9034
  105DOPC   H4S14402   0.769   6.161   4.767 -1.6056  1.4681 -0.7570
  105DOPC   C2514403   0.914   6.239   4.618  0.3912 -0.6044 -1.1929
  105DOPC   H5R14404   0.959   6.139   4.601  0.7067 -0.5918 -0.4767
  105DOPC   H5S14405   0.995   6.316   4.622  0.0356 -0.2458 -0.7695
  105DOPC   C2614406   0.831   6.260   4.498 -0.3417 -0.2055  0.2689
  105DOPC   H6R14407   0.780   6.358   4.492 -0.4577 -0.2978 -0.3485
  105DOPC   H6S14408   0.758   6.176   4.496  0.6684 -1.0951 -1.2657
  105DOPC   C2714409   0.927   6.257   4.377 -0.0949  0.1661 -0.3295
  105DOPC   H7R14410   1.001   6.179   4.404 -0.2696  0.6696  1.8438
  105DOPC   H7S14411   0.983   6.353   4.387  2.1862 -1.0283 -0.8806
  105DOPC   C2814412   0.873   6.237   4.237 -0.3136 -0.0049  0.6508
  105DOPC   H8R14413   0.844   6.130   4.244 -0.8551  0.1190  0.2910
  105DOPC   H8S14414   0.956   6.247   4.164  1.7661  1.4277  3.0204
  105DOPC   C2914415   0.761   6.333   4.221  0.0209 -0.5435 -0.4930
  105DOPC   H9R14416   0.699   6.362   4.307  0.7922  1.7993 -0.6644
  105DOPC  C21014417   0.719   6.375   4.103  0.8294 -0.3105 -0.1603
  105DOPC  H10R14418   0.632   6.440   4.088 -1.1464 -2.2543  1.9881
  105DOPC  C21114419   0.775   6.337   3.964 -0.7168  0.2850 -1.2248
  105DOPC  H11R14420   0.685   6.316   3.903 -0.4994 -0.1261 -1.4068
  105DOPC  H11S14421   0.837   6.247   3.950 -2.0311 -0.7444 -0.6183
  105DOPC  C21214422   0.835   6.459   3.904 -0.3807  0.2637  0.3152
  105DOPC  H12R14423   0.924   6.493   3.961 -1.2997  2.8999  0.3382
  105DOPC  H12S14424   0.769   6.547   3.893 -1.6842 -0.2722  3.0667
  105DOPC  C21314425   0.894   6.434   3.761 -0.3426 -0.3316 -0.0803
  105DOPC  H13R14426   0.984   6.369   3.769  0.4776  0.5119 -1.8665
  105DOPC  H13S14427   0.935   6.525   3.713 -0.2762 -1.4680 -2.3132
  105DOPC  C21414428   0.781   6.389   3.663 -0.5399  0.3864 -0.1886
  105DOPC  H14R14429   0.695   6.456   3.680  1.2261  2.4065  1.3480
  105DOPC  H14S14430   0.745   6.288   3.692 -1.7638  0.8142 -0.1744
  105DOPC  C21514431   0.829   6.394   3.518  0.3325  0.2392  0.1415
  105DOPC  H15R14432   0.910   6.319   3.506 -0.9654 -1.4436  1.4648
  105DOPC  H15S14433   0.861   6.500   3.504 -0.1601  0.4641  0.7170
  105DOPC  C21614434   0.708   6.366   3.423 -0.4584 -0.5693  0.6291
  105DOPC  H16R14435   0.638   6.452   3.426  0.5695  0.3140 -0.0628
  105DOPC  H16S14436   0.654   6.276   3.458 -0.0014 -0.8886  0.5269
  105DOPC  C21714437   0.756   6.343   3.281 -0.2400 -0.1083  0.1341
  105DOPC  H17R14438   0.807   6.245   3.267  0.8914  0.5928 -0.8472
  105DOPC  H17S14439   0.829   6.418   3.245  0.5558 -0.0622  1.7433
  105DOPC  C21814440   0.655   6.352   3.156 -0.1433  0.2970 -1.0345
  105DOPC  H18R14441   0.641   6.460   3.135  0.9636  0.9792  1.3333
  105DOPC  H18S14442   0.565   6.309   3.205  0.6955  0.7341  1.0017
  105DOPC  H18T14443   0.683   6.309   3.057  0.3897  0.9873 -1.1966
  105DOPC   C3314444   1.352   6.063   4.825 -0.2485 -0.2592 -0.3830
  105DOPC   H3X14445   1.457   6.074   4.790 -0.4182  1.3461 -0.4402
  105DOPC   H3Y14446   1.321   6.162   4.865 -0.2999  0.2782 -1.6952
  105DOPC   C3414447   1.256   6.037   4.708  0.4783  0.1687 -0.0779
  105DOPC   H4X14448   1.243   6.129   4.647 -0.6566  1.2103  1.6547
  105DOPC   H4Y14449   1.154   6.008   4.741  0.4607 -1.5063 -1.4283
  105DOPC   C3514450   1.303   5.923   4.624 -0.4867  0.2555  0.0695
  105DOPC   H5X14451   1.289   5.823   4.671 -0.3380  0.6371  0.9530
  105DOPC   H5Y14452   1.413   5.928   4.604 -0.2248 -0.8058  1.1560
  105DOPC   C3614453   1.230   5.906   4.486  0.2935 -0.5333 -0.2849
  105DOPC   H6X14454   1.213   6.008   4.445  0.3219 -0.3972  0.0349
  105DOPC   H6Y14455   1.282   5.854   4.403 -1.6682 -2.8726 -0.1390
  105DOPC   C3714456   1.100   5.830   4.489 -0.6429 -0.3923  0.0327
  105DOPC   H7X14457   1.121   5.721   4.488  0.6904 -0.1590  0.4129
  105DOPC   H7Y14458   1.047   5.851   4.585  1.7398 -0.3035  1.4085
  105DOPC   C3814459   1.017   5.859   4.362  0.6504 -0.3639 -0.0937
  105DOPC   H8X14460   1.070   5.831   4.268  0.6508  1.0206 -0.5202
  105DOPC   H8Y14461   0.996   5.968   4.356 -1.1494 -0.7697 -2.4304
  105DOPC   C3914462   0.886   5.786   4.373  0.6343 -1.2120 -0.6539
  105DOPC   H9X14463   0.822   5.822   4.455 -0.6650  0.4997 -2.3141
  105DOPC  C31014464   0.827   5.702   4.289  0.3382 -0.1489 -0.0984
  105DOPC  H10X14465   0.725   5.667   4.311  0.8703 -2.0975 -0.5427
  105DOPC  C31114466   0.884   5.648   4.160 -0.0274 -0.6093 -0.0503
  105DOPC  H11X14467   0.935   5.733   4.110  0.2264 -0.7491 -0.0275
  105DOPC  H11Y14468   0.801   5.616   4.093 -0.6652  2.3113 -0.8248
  105DOPC  C31214469   0.986   5.536   4.179 -0.4510 -0.8183  0.2854
  105DOPC  H12X14470   1.060   5.560   4.258 -1.3672  0.8789  0.6918
  105DOPC  H12Y14471   1.047   5.516   4.089 -0.3018  1.4638 -0.1793
  105DOPC  C31314472   0.924   5.396   4.208  0.4348  0.5786  0.2774
  105DOPC  H13X14473   0.881   5.400   4.310  1.8591  1.1831  0.8853
  105DOPC  H13Y14474   0.840   5.384   4.136  2.3097 -0.4427 -1.8924
  105DOPC  C31414475   1.012   5.271   4.174 -0.0675  0.1923  0.3433
  105DOPC  H14X14476   1.061   5.279   4.075  1.8258  0.1904  1.2438
  105DOPC  H14Y14477   1.095   5.283   4.247 -0.9855 -0.2311  1.4859
  105DOPC  C31514478   0.951   5.133   4.197 -0.2760  0.2716 -0.6903
  105DOPC  H15X14479   0.886   5.117   4.108  1.6945  0.2917 -2.2208
  105DOPC  H15Y14480   0.882   5.138   4.283  2.3161 -0.8717  1.5968
  105DOPC  C31614481   1.056   5.020   4.215 -0.5093  0.6968  0.5014
  105DOPC  H16X14482   1.146   5.029   4.151  1.5150 -0.5456  2.9863
  105DOPC  H16Y14483   1.101   5.035   4.316 -0.8541  1.1998  0.5868
  105DOPC  C31714484   0.986   4.883   4.212 -0.1326 -0.0882  0.4261
  105DOPC  H17X14485   0.895   4.881   4.276  0.2783  0.4640  1.0495
  105DOPC  H17Y14486   0.927   4.873   4.118 -0.9855  0.0860  0.9260
  105DOPC  C31814487   1.067   4.756   4.218 -0.0619  0.3502  0.5776
  105DOPC  H18X14488   1.002   4.667   4.203  0.4216  0.0646  0.1867
  105DOPC  H18Y14489   1.146   4.768   4.141 -0.5927 -0.5311 -0.1107
  105DOPC  H18Z14490   1.110   4.757   4.321 -1.8919 -0.1361  1.4012
  106DOPC     N14491  11.029  11.382   6.576  0.5568  0.4405  0.5462
  106DOPC   C1214492  10.875  11.382   6.551  0.2160  0.1207  0.3762
  106DOPC  H12A14493  10.847  11.478   6.510  1.1609 -0.5700 -2.0973
  106DOPC  H12B14494  10.833  11.364   6.649  2.2100 -3.3447  0.7602
  106DOPC   C1314495  11.066  11.483   6.690  1.1015 -0.2299 -0.2576
  106DOPC  H13A14496  11.172  11.483   6.711  0.8766  0.0894  0.9449
  106DOPC  H13B14497  11.028  11.582   6.672 -2.1462 -0.9239  1.7628
  106DOPC  H13C14498  11.020  11.447   6.781 -1.1348  1.4127 -0.6571
  106DOPC   C1414499  11.099  11.438   6.451 -0.7173 -0.0611 -0.0026
  106DOPC  H14A14500  11.063  11.538   6.430 -2.2175 -0.6250 -0.2372
  106DOPC  H14B14501  11.205  11.456   6.462 -0.9304  1.7541 -0.5403
  106DOPC  H14C14502  11.086  11.375   6.365  1.0078 -1.4953  0.7188
  106DOPC   C1514503  11.086  11.250   6.606  0.4964  0.1868  0.6717
  106DOPC  H15A14504  11.053  11.215   6.703  0.0460 -0.6486  0.2231
  106DOPC  H15B14505  11.193  11.248   6.622  0.5065  2.2526  1.1716
  106DOPC  H15C14506  11.055  11.179   6.531  2.7775 -0.1602 -0.0420
  106DOPC   C1114507  10.816  11.287   6.447  0.7020  0.1068  0.4315
  106DOPC  H11A14508  10.818  11.193   6.506 -0.6746 -0.6870 -0.6940
  106DOPC  H11B14509  10.707  11.306   6.439  1.0940  2.1436 -1.0003
  106DOPC     P14510  10.841  11.389   6.216  0.1094 -0.1703 -0.2382
  106DOPC   O1314511  10.963  11.397   6.128 -0.0972  0.2850 -0.5211
  106DOPC   O1414512  10.804  11.515   6.282  0.3030 -0.3276  0.6301
  106DOPC   O1214513  10.882  11.275   6.326  0.3814 -0.6847  0.4604
  106DOPC   O1114514  10.717  11.319   6.142 -0.6313 -0.1270  0.1251
  106DOPC    C114515  10.744  11.211   6.058 -0.6065 -0.1680  0.2039
  106DOPC    HA14516  10.657  11.144   6.042 -0.1519 -0.2424 -2.4821
  106DOPC    HB14517  10.827  11.144   6.087 -0.9093 -0.7518 -0.2571
  106DOPC    C214518  10.760  11.260   5.911  0.3100  0.3666 -0.0174
  106DOPC    HS14519  10.865  11.295   5.904  0.4421 -0.0666 -0.2553
  106DOPC   O2114520  10.648  11.350   5.879 -0.5713  0.4701  0.5335
  106DOPC   C2114521  10.689  11.451   5.802  0.5912  1.1605 -0.1730
  106DOPC   O2214522  10.799  11.474   5.759  0.3268 -0.2163 -0.1646
  106DOPC   C2214523  10.568  11.547   5.774  0.4952 -0.0143  0.1007
  106DOPC   H2R14524  10.619  11.645   5.757  0.0898  0.0448 -0.8155
  106DOPC   H2S14525  10.502  11.552   5.863  1.4984 -0.8998  0.9209
  106DOPC    C314526  10.746  11.141   5.816  1.0336 -0.8396 -0.2424
  106DOPC    HX14527  10.665  11.078   5.859  1.2274 -1.9273 -1.4261
  106DOPC    HY14528  10.831  11.070   5.822  1.4948 -0.5588 -2.6549
  106DOPC   O3114529  10.709  11.182   5.680  0.0141 -0.5597 -0.2640
  106DOPC   C3114530  10.806  11.182   5.598  0.6120  0.0031 -0.3747
  106DOPC   O3214531  10.916  11.140   5.620 -0.3500 -0.5842 -0.0069
  106DOPC   C3214532  10.763  11.241   5.466  0.4383  0.0855 -0.2592
  106DOPC   H2X14533  10.667  11.201   5.429 -0.9797  1.8872  1.2741
  106DOPC   H2Y14534  10.738  11.348   5.483  1.1902  0.2282 -0.0143
  106DOPC   C2314535  10.495  11.514   5.639 -0.6030 -0.3931 -0.4740
  106DOPC   H3R14536  10.390  11.550   5.647 -0.5596 -0.4125  0.1803
  106DOPC   H3S14537  10.477  11.406   5.621 -1.4329 -0.5755  1.2956
  106DOPC   C2414538  10.558  11.578   5.517 -0.5647  0.6551 -0.7246
  106DOPC   H4R14539  10.665  11.556   5.503 -0.1865  2.1495 -0.3857
  106DOPC   H4S14540  10.545  11.689   5.519  0.3526  0.7580 -0.1818
  106DOPC   C2514541  10.495  11.544   5.384 -0.0133  0.1149  0.0123
  106DOPC   H5R14542  10.385  11.564   5.385 -0.3907 -1.7470  0.7253
  106DOPC   H5S14543  10.521  11.441   5.353  1.4504  0.5902 -0.4121
  106DOPC   C2614544  10.560  11.630   5.280  0.1555  0.5195  1.3065
  106DOPC   H6R14545  10.666  11.599   5.279  0.4388  1.3754 -0.7372
  106DOPC   H6S14546  10.541  11.739   5.289  2.3702  0.9561  1.1879
  106DOPC   C2714547  10.495  11.595   5.149 -0.3777 -0.0193  0.9313
  106DOPC   H7R14548  10.391  11.631   5.136 -0.9760 -0.5032  3.7784
  106DOPC   H7S14549  10.500  11.485   5.133 -0.8547 -0.0953  1.3126
  106DOPC   C2814550  10.581  11.649   5.034  0.4832  0.0618  0.3460
  106DOPC   H8R14551  10.571  11.589   4.941  0.9654  0.1886  0.2089
  106DOPC   H8S14552  10.686  11.650   5.071  0.5160 -0.5830  0.2815
  106DOPC   C2914553  10.551  11.796   5.008  0.1862  0.4111  0.1626
  106DOPC   H9R14554  10.563  11.857   5.099 -0.5145 -2.0046  1.9606
  106DOPC  C21014555  10.518  11.840   4.884  0.3361  0.3263  0.1059
  106DOPC  H10R14556  10.491  11.946   4.875  0.3770  0.4270  1.0797
  106DOPC  C21114557  10.504  11.759   4.763  0.3477 -0.4609  0.2114
  106DOPC  H11R14558  10.437  11.809   4.689 -0.7880 -0.3193  1.2952
  106DOPC  H11S14559  10.449  11.664   4.781  0.0090 -0.2919  0.0873
  106DOPC  C21214560  10.644  11.722   4.710 -0.1450 -0.5241 -0.7822
  106DOPC  H12R14561  10.707  11.651   4.768 -0.5163  0.3365  0.7373
  106DOPC  H12S14562  10.706  11.814   4.712 -0.6059 -0.1851 -1.8196
  106DOPC  C21314563  10.643  11.690   4.562 -0.2000  0.2394 -0.2682
  106DOPC  H13R14564  10.582  11.601   4.535  3.0442 -2.4478  0.5275
  106DOPC  H13S14565  10.749  11.665   4.538 -0.0947 -2.0168  2.0840
  106DOPC  C21414566  10.606  11.808   4.471  0.5737  0.1718  0.1171
  106DOPC  H14R14567  10.682  11.888   4.468  0.0032  0.7092 -1.4415
  106DOPC  H14S14568  10.512  11.853   4.509  0.6525  0.6680 -0.2708
  106DOPC  C21514569  10.593  11.766   4.324 -0.1751 -0.3414  0.0557
  106DOPC  H15R14570  10.551  11.854   4.272  0.7407  0.5120  0.7309
  106DOPC  H15S14571  10.510  11.691   4.326 -2.6049  2.2121  0.6186
  106DOPC  C21614572  10.718  11.719   4.258 -0.0670  0.4870  0.1841
  106DOPC  H16R14573  10.765  11.632   4.308 -0.7879  0.7172  1.2772
  106DOPC  H16S14574  10.794  11.801   4.258 -2.0000  2.3598  0.7159
  106DOPC  C21714575  10.691  11.679   4.112  0.0701  1.0948  0.6167
  106DOPC  H17R14576  10.582  11.695   4.094  0.3497  0.2940 -2.1990
  106DOPC  H17S14577  10.714  11.571   4.101 -0.4224  1.2034 -2.5081
  106DOPC  C21814578  10.779  11.762   4.012 -0.1125 -0.0144 -0.0130
  106DOPC  H18R14579  10.882  11.752   4.052 -0.8405 -3.2649  1.4337
  106DOPC  H18S14580  10.757  11.870   4.004 -1.5674 -0.3872 -1.9309
  106DOPC  H18T14581  10.764  11.723   3.909 -1.3528 -2.0313  0.8633
  106DOPC   C3314582  10.873  11.240   5.361  0.2134 -0.1758 -0.2568
  106DOPC   H3X14583  10.915  11.139   5.344  2.0733  0.4114  0.5803
  106DOPC   H3Y14584  10.957  11.298   5.405 -0.1241  1.0619 -1.1746
  106DOPC   C3414585  10.836  11.288   5.222  0.0461 -0.7846  0.5416
  106DOPC   H4X14586  10.798  11.391   5.245  2.2370  0.2552 -0.2390
  106DOPC   H4Y14587  10.762  11.218   5.178  0.4156 -0.0062 -1.4273
  106DOPC   C3514588  10.953  11.287   5.116 -0.0510 -1.0348 -0.0065
  106DOPC   H5X14589  10.997  11.189   5.090  1.4790 -0.2889 -0.3917
  106DOPC   H5Y14590  11.044  11.342   5.150 -1.9548  1.5283  1.2936
  106DOPC   C3614591  10.906  11.360   4.994  0.0007 -0.3701 -0.2582
  106DOPC   H6X14592  10.846  11.289   4.934  1.1548 -1.2314 -0.4438
  106DOPC   H6Y14593  10.834  11.440   5.022  0.6771  0.6009 -1.2285
  106DOPC   C3714594  11.022  11.417   4.913  0.1934  0.4346  0.0935
  106DOPC   H7X14595  11.081  11.495   4.966  1.4891  1.3766 -2.5822
  106DOPC   H7Y14596  11.077  11.324   4.889 -1.4399 -0.5341 -0.0586
  106DOPC   C3814597  10.978  11.501   4.790 -0.1547  0.1899  0.2173
  106DOPC   H8X14598  11.068  11.533   4.734  0.1145 -0.0275  0.5195
  106DOPC   H8Y14599  10.915  11.591   4.809 -1.2164 -0.2959 -0.8476
  106DOPC   C3914600  10.897  11.420   4.695 -0.0104 -0.8428 -0.3566
  106DOPC   H9X14601  10.807  11.384   4.747  0.8164 -0.7581  1.2053
  106DOPC  C31014602  10.913  11.392   4.565 -0.0738  0.4849 -0.6232
  106DOPC  H10X14603  10.825  11.353   4.512  0.0211 -0.4441 -0.1168
  106DOPC  C31114604  11.033  11.433   4.490  0.2268  0.6113 -0.1299
  106DOPC  H11X14605  11.068  11.339   4.442 -1.5823 -0.4203  0.4801
  106DOPC  H11Y14606  11.122  11.451   4.554  2.8079  0.7047 -3.4566
  106DOPC  C31214607  11.018  11.535   4.378  0.1676  0.6599 -0.1664
  106DOPC  H12X14608  10.978  11.629   4.423 -2.9791 -0.1098 -1.1230
  106DOPC  H12Y14609  10.945  11.505   4.300  0.0332 -0.8894  0.5187
  106DOPC  C31314610  11.157  11.552   4.304  1.0520  0.1023 -0.0297
  106DOPC  H13X14611  11.230  11.574   4.385  1.9926  0.6344 -1.0041
  106DOPC  H13Y14612  11.192  11.455   4.264  1.0453  0.1985 -0.2750
  106DOPC  C31414613  11.134  11.656   4.199 -0.7653 -0.5372 -0.0831
  106DOPC  H14X14614  11.035  11.643   4.150 -1.1640 -1.1294  0.8462
  106DOPC  H14Y14615  11.134  11.756   4.247 -1.2342 -1.3786  1.7642
  106DOPC  C31514616  11.235  11.665   4.091 -0.7719 -0.2732 -0.0076
  106DOPC  H15X14617  11.196  11.739   4.019  2.2143  0.5467 -0.9293
  106DOPC  H15Y14618  11.249  11.570   4.034 -0.9503 -0.6753  0.6143
  106DOPC  C31614619  11.379  11.711   4.135  0.6757  0.2365 -0.8126
  106DOPC  H16X14620  11.407  11.663   4.231 -1.4382  0.8272  0.1623
  106DOPC  H16Y14621  11.445  11.668   4.057 -0.7359 -0.6034 -1.5933
  106DOPC  C31714622  11.395  11.866   4.139  0.2984  0.3991 -0.4171
  106DOPC  H17X14623  11.341  11.904   4.050  0.8055  0.0927 -0.8615
  106DOPC  H17Y14624  11.347  11.895   4.235  1.4123  1.0203 -0.0364
  106DOPC  C31814625  11.537  11.924   4.147  0.4199 -0.4285  0.1087
  106DOPC  H18X14626  11.579  11.892   4.245  0.9092 -0.3093 -0.0579
  106DOPC  H18Y14627  11.605  11.905   4.062 -0.5374 -0.1384 -0.7453
  106DOPC  H18Z14628  11.527  12.035   4.154 -2.3745 -0.6582  1.2000
  107DOPC     N14629   7.590   4.801   6.394 -0.0214  0.4553  0.2273
  107DOPC   C1214630   7.484   4.830   6.292  0.6348  0.2352  0.0281
  107DOPC  H12A14631   7.394   4.802   6.344  0.2601  1.1586 -0.0974
  107DOPC  H12B14632   7.502   4.756   6.215  0.6318  0.4818 -0.2122
  107DOPC   C1314633   7.730   4.831   6.348  0.1218 -0.2960  0.3801
  107DOPC  H13A14634   7.726   4.933   6.314  0.3606 -0.2739  0.4228
  107DOPC  H13B14635   7.806   4.823   6.423 -0.7222  1.7610  1.5493
  107DOPC  H13C14636   7.766   4.757   6.278  1.2279 -1.6517  2.3197
  107DOPC   C1414637   7.598   4.662   6.438 -0.9589 -0.1776  0.9082
  107DOPC  H14A14638   7.664   4.632   6.518  1.7029 -0.2061 -1.1565
  107DOPC  H14B14639   7.500   4.628   6.466 -2.1898 -0.6883 -3.2451
  107DOPC  H14C14640   7.644   4.605   6.358 -0.6761  1.7465 -0.3758
  107DOPC   C1514641   7.559   4.893   6.513 -0.4755  0.1731 -0.9640
  107DOPC  H15A14642   7.475   4.857   6.569  1.2083  0.3933  1.8911
  107DOPC  H15B14643   7.546   4.994   6.478 -0.9114  0.6698  0.5505
  107DOPC  H15C14644   7.628   4.881   6.596 -1.0025  2.9999 -0.0152
  107DOPC   C1114645   7.467   4.972   6.239 -0.2454  0.2587 -0.6521
  107DOPC  H11A14646   7.367   4.974   6.190 -0.7850  1.4733  0.4490
  107DOPC  H11B14647   7.464   5.042   6.325 -0.6024 -0.7113  0.1457
  107DOPC     P14648   7.582   5.154   6.102  0.0084  0.4855  0.1773
  107DOPC   O1314649   7.722   5.187   6.086  0.0291  0.3515 -0.0060
  107DOPC   O1414650   7.501   5.240   6.188 -0.3579 -0.1450 -0.3751
  107DOPC   O1214651   7.556   5.002   6.141 -0.2411  0.1708 -0.0673
  107DOPC   O1114652   7.531   5.160   5.951 -0.4085 -0.2293 -0.1204
  107DOPC    C114653   7.450   5.054   5.902  0.7979  0.5339 -0.1033
  107DOPC    HA14654   7.373   5.023   5.976  1.6081  0.7803  0.8700
  107DOPC    HB14655   7.512   4.964   5.884 -0.1102 -1.0268  3.5193
  107DOPC    C214656   7.386   5.091   5.776  0.0461 -0.1225  0.7681
  107DOPC    HS14657   7.331   5.006   5.730  0.5128  0.6969 -1.4198
  107DOPC   O2114658   7.491   5.136   5.692 -0.2487  0.0025 -0.1313
  107DOPC   C2114659   7.493   5.088   5.568  0.2234 -0.0404  0.4659
  107DOPC   O2214660   7.403   5.018   5.521 -0.4757 -0.2659  0.6730
  107DOPC   C2214661   7.615   5.123   5.490  0.0951 -0.6658 -0.9523
  107DOPC   H2R14662   7.696   5.116   5.565 -0.6978  1.2677  0.1797
  107DOPC   H2S14663   7.601   5.228   5.455 -2.1786  0.1076  1.8453
  107DOPC    C314664   7.279   5.200   5.786  0.3542 -0.0154  0.1208
  107DOPC    HX14665   7.331   5.292   5.820  0.1318  0.9725 -2.0790
  107DOPC    HY14666   7.201   5.189   5.865 -1.0389 -1.3578 -1.3684
  107DOPC   O3114667   7.203   5.219   5.665 -0.7619 -0.4046 -0.4982
  107DOPC   C3114668   7.104   5.123   5.643 -0.5482 -0.1494 -0.0173
  107DOPC   O3214669   7.064   5.045   5.724  0.7939  0.1277 -0.3056
  107DOPC   C3214670   7.049   5.139   5.506  0.0473 -0.1184  0.5986
  107DOPC   H2X14671   6.943   5.172   5.510 -0.1685 -0.5302 -0.9593
  107DOPC   H2Y14672   7.103   5.217   5.449 -0.3144 -0.0428  0.3575
  107DOPC   C2314673   7.640   5.030   5.376 -0.5217  0.3820  0.4308
  107DOPC   H3R14674   7.586   5.071   5.287 -0.6627  0.6055  0.6187
  107DOPC   H3S14675   7.594   4.929   5.386  0.0202  0.2530  1.7808
  107DOPC   C2414676   7.788   5.014   5.336  0.3302  0.4218  0.2675
  107DOPC   H4R14677   7.822   4.926   5.278 -0.3763  0.6207 -0.4556
  107DOPC   H4S14678   7.848   5.001   5.429 -0.8799  1.3232  1.2222
  107DOPC   C2514679   7.846   5.136   5.270 -0.2266  0.3561  0.5434
  107DOPC   H5R14680   7.832   5.216   5.346 -0.7325  0.8381 -0.0516
  107DOPC   H5S14681   7.775   5.161   5.188  0.5685 -0.5056 -0.4426
  107DOPC   C2614682   7.996   5.136   5.236 -0.2167  0.6800 -0.7701
  107DOPC   H6R14683   8.026   5.044   5.182  0.8992  1.1098 -0.9039
  107DOPC   H6S14684   8.047   5.140   5.335  0.6924 -0.3646 -1.1752
  107DOPC   C2714685   8.043   5.259   5.151 -0.0822 -0.1637 -0.0954
  107DOPC   H7R14686   8.150   5.279   5.174 -0.1969  0.2922  0.0596
  107DOPC   H7S14687   7.987   5.346   5.191 -3.7194 -2.0666 -0.6623
  107DOPC   C2814688   8.026   5.234   4.997 -0.5451 -0.3149  0.6929
  107DOPC   H8R14689   7.916   5.216   4.985 -0.5013  0.3754 -0.9626
  107DOPC   H8S14690   8.088   5.144   4.974  0.3236  0.6997 -1.1269
  107DOPC   C2914691   8.083   5.340   4.915 -0.0830  0.1407  0.2028
  107DOPC   H9R14692   8.049   5.435   4.959  1.4005  0.0864  1.5516
  107DOPC  C21014693   8.160   5.329   4.809 -0.4778  0.2331  0.1221
  107DOPC  H10R14694   8.189   5.417   4.750  0.6458 -2.1268 -3.1213
  107DOPC  C21114695   8.205   5.205   4.741  0.0257  0.4715  0.3170
  107DOPC  H11R14696   8.208   5.118   4.809  0.9494  1.2350  1.2874
  107DOPC  H11S14697   8.301   5.212   4.686 -1.2829  3.8255 -1.9083
  107DOPC  C21214698   8.117   5.168   4.615  0.6765  0.0654 -0.4521
  107DOPC  H12R14699   8.094   5.259   4.555 -1.4687 -1.4455 -2.0799
  107DOPC  H12S14700   8.022   5.122   4.648 -0.3031  1.1273 -1.7065
  107DOPC  C21314701   8.189   5.072   4.512 -0.1412  0.8705 -0.1748
  107DOPC  H13R14702   8.294   5.106   4.502  0.7571 -0.9688  2.1272
  107DOPC  H13S14703   8.143   5.068   4.411 -0.3638  0.1788 -0.0447
  107DOPC  C21414704   8.205   4.930   4.561 -0.0038  0.3418  0.0361
  107DOPC  H14R14705   8.100   4.896   4.545 -0.4509  2.2807 -1.4430
  107DOPC  H14S14706   8.230   4.929   4.670 -0.1007 -0.8774  0.0652
  107DOPC  C21514707   8.302   4.855   4.469 -0.5171  0.7521 -0.0105
  107DOPC  H15R14708   8.297   4.746   4.491 -0.7087  0.4310 -1.5374
  107DOPC  H15S14709   8.404   4.886   4.501 -1.0473  0.9410  1.5814
  107DOPC  C21614710   8.288   4.878   4.320  0.2702  0.3477 -0.0803
  107DOPC  H16R14711   8.309   4.986   4.306 -0.7824  0.6297  0.4347
  107DOPC  H16S14712   8.185   4.857   4.284  0.6584  2.3312 -2.6481
  107DOPC  C21714713   8.396   4.801   4.228  0.6397  0.2439  0.4210
  107DOPC  H17R14714   8.397   4.699   4.272  0.2502  0.1547  0.2235
  107DOPC  H17S14715   8.498   4.845   4.234  1.6449 -1.9968  1.0848
  107DOPC  C21814716   8.353   4.788   4.079 -0.4475 -0.0135  0.4554
  107DOPC  H18R14717   8.274   4.710   4.071  1.4021 -1.7704 -2.2782
  107DOPC  H18S14718   8.436   4.745   4.019 -0.4917  1.0945 -0.4328
  107DOPC  H18T14719   8.316   4.884   4.039 -0.2037 -0.5213 -1.0635
  107DOPC   C3314720   7.054   5.010   5.419  0.0148 -0.3038 -0.5354
  107DOPC   H3X14721   6.991   4.936   5.474  0.3824  0.6187  1.2003
  107DOPC   H3Y14722   7.157   4.970   5.423  0.2447  0.3971  2.0150
  107DOPC   C3414723   7.002   5.032   5.279  0.3670  0.0016 -0.2333
  107DOPC   H4X14724   7.062   5.109   5.226 -0.9335  1.7675  0.7541
  107DOPC   H4Y14725   6.904   5.085   5.286  1.2303  1.6779 -0.5486
  107DOPC   C3514726   6.992   4.899   5.199 -0.2163 -0.3478  0.5213
  107DOPC   H5X14727   6.928   4.833   5.262 -1.7164  1.0750  0.5539
  107DOPC   H5Y14728   7.089   4.845   5.190  0.7839  1.5757 -0.9912
  107DOPC   C3614729   6.934   4.906   5.055  0.2323 -0.2467 -0.5252
  107DOPC   H6X14730   6.824   4.921   5.059  0.1480 -1.0675  1.7926
  107DOPC   H6Y14731   6.977   4.997   5.006  1.1708 -0.4547 -0.1158
  107DOPC   C3714732   6.964   4.790   4.964  1.1122 -0.1852  0.7029
  107DOPC   H7X14733   6.931   4.812   4.860  1.6438 -3.3824 -0.2558
  107DOPC   H7Y14734   7.073   4.778   4.948  1.0010 -0.2794 -0.0210
  107DOPC   C3814735   6.893   4.658   5.011  0.5208  0.3297  0.4758
  107DOPC   H8X14736   6.893   4.657   5.122  1.2203  0.4202  0.4762
  107DOPC   H8Y14737   6.968   4.582   4.982 -1.3856 -1.1025 -0.9547
  107DOPC   C3914738   6.759   4.628   4.950  0.3429 -0.1961  0.4359
  107DOPC   H9X14739   6.757   4.620   4.840  0.6032  1.1545  0.3092
  107DOPC  C31014740   6.641   4.611   5.016 -0.1466  0.2167  0.5044
  107DOPC  H10X14741   6.550   4.587   4.959 -0.4805  0.8077  0.7746
  107DOPC  C31114742   6.624   4.630   5.167 -1.0432 -0.2382 -0.0506
  107DOPC  H11X14743   6.597   4.733   5.199  0.2655 -0.2560  1.1883
  107DOPC  H11Y14744   6.719   4.608   5.219 -1.7752 -2.4083  0.4540
  107DOPC  C31214745   6.542   4.514   5.234 -0.5539 -0.2460  0.2735
  107DOPC  H12X14746   6.549   4.529   5.344  0.0818  3.8537 -0.1675
  107DOPC  H12Y14747   6.579   4.412   5.207 -2.6582 -0.4057 -2.5623
  107DOPC  C31314748   6.398   4.511   5.210  0.5993  0.0628 -0.6056
  107DOPC  H13X14749   6.351   4.610   5.220 -1.4206 -0.8956 -0.1510
  107DOPC  H13Y14750   6.375   4.473   5.108 -0.8165 -0.5646 -0.0829
  107DOPC  C31414751   6.324   4.424   5.312  0.0669 -0.1984 -0.1088
  107DOPC  H14X14752   6.367   4.322   5.300  0.9512 -0.0523  1.5182
  107DOPC  H14Y14753   6.323   4.448   5.421 -0.9795  2.0191 -0.5660
  107DOPC  C31514754   6.182   4.377   5.267  0.0862 -0.3274 -0.2104
  107DOPC  H15X14755   6.134   4.307   5.339 -3.0113  1.2175 -0.6202
  107DOPC  H15Y14756   6.180   4.322   5.170 -2.6772  1.5540 -1.3640
  107DOPC  C31614757   6.083   4.492   5.247  0.6456  1.3091 -0.0272
  107DOPC  H16X14758   5.987   4.462   5.293  0.5913 -0.7915 -1.3995
  107DOPC  H16Y14759   6.122   4.583   5.297  1.2111  0.8604  0.3688
  107DOPC  C31714760   6.042   4.524   5.107  0.4008 -0.7459  0.2771
  107DOPC  H17X14761   5.997   4.626   5.107 -0.2584 -1.0347  0.2857
  107DOPC  H17Y14762   6.130   4.536   5.040  2.4322 -2.4543  2.4772
  107DOPC  C31814763   5.954   4.423   5.040  0.2269  1.0246 -0.7066
  107DOPC  H18X14764   5.994   4.324   5.072 -1.6758  0.8196  1.2807
  107DOPC  H18Y14765   5.850   4.426   5.078  0.3385  2.4933 -0.4632
  107DOPC  H18Z14766   5.940   4.425   4.930 -0.9032 -0.6599 -0.6327
  108DOPC     N14767   2.749  11.238   6.438  0.2330 -0.2864  0.4111
  108DOPC   C1214768   2.819  11.134   6.527  0.4204 -0.3793 -0.3370
  108DOPC  H12A14769   2.761  11.043   6.537  0.6113 -0.4813 -0.1629
  108DOPC  H12B14770   2.823  11.180   6.624  1.8302 -0.4312 -0.3376
  108DOPC   C1314771   2.833  11.364   6.421  0.5032  0.2226 -0.6036
  108DOPC  H13A14772   2.767  11.443   6.388 -0.3110 -0.1638  0.0453
  108DOPC  H13B14773   2.888  11.390   6.511 -0.5542 -1.4368  0.5919
  108DOPC  H13C14774   2.917  11.347   6.355  0.8828  0.4780 -0.1940
  108DOPC   C1414775   2.619  11.272   6.502 -0.4218 -0.7339  0.3239
  108DOPC  H14A14776   2.570  11.343   6.437  1.2630  0.9447  0.7975
  108DOPC  H14B14777   2.555  11.187   6.523 -0.1228 -0.4613  2.6118
  108DOPC  H14C14778   2.643  11.323   6.594 -1.3759 -0.2601  0.3280
  108DOPC   C1514779   2.719  11.189   6.303  0.3380  0.7436  0.4079
  108DOPC  H15A14780   2.809  11.169   6.247 -1.5407  0.7360 -2.8899
  108DOPC  H15B14781   2.663  11.262   6.245  0.1792 -0.7848 -1.4814
  108DOPC  H15C14782   2.663  11.097   6.307  0.6315  0.4562 -1.2922
  108DOPC   C1114783   2.964  11.089   6.478 -1.2417  0.7936  0.6531
  108DOPC  H11A14784   3.021  11.179   6.445  0.5756 -0.4690  0.1495
  108DOPC  H11B14785   3.003  11.044   6.572  1.4786  1.5714 -0.0097
  108DOPC     P14786   3.085  10.916   6.324  0.6801  0.0024 -0.2857
  108DOPC   O1314787   3.065  10.779   6.374  0.3840  0.3067  0.5138
  108DOPC   O1414788   3.208  10.988   6.358  0.2583 -0.6023 -0.6025
  108DOPC   O1214789   2.961  10.997   6.366 -0.4517  0.1393  0.9486
  108DOPC   O1114790   3.078  10.905   6.166 -0.1306  0.7259 -0.1175
  108DOPC    C114791   2.986  10.825   6.095  0.0854 -0.0841 -0.0620
  108DOPC    HA14792   2.901  10.793   6.159 -0.3033 -1.0485 -1.0356
  108DOPC    HB14793   3.035  10.729   6.070 -0.0142 -0.3192  0.6176
  108DOPC    C214794   2.921  10.890   5.965  0.0213 -0.7032 -0.3114
  108DOPC    HS14795   2.834  10.829   5.933 -3.1599  3.1032  0.2629
  108DOPC   O2114796   3.021  10.914   5.857 -0.1440  0.1401 -0.2872
  108DOPC   C2114797   3.055  10.803   5.795 -0.4139 -0.5724 -0.2568
  108DOPC   O2214798   3.037  10.688   5.837 -0.5082 -1.0367  0.1934
  108DOPC   C2214799   3.103  10.842   5.653 -0.0713  0.2444  0.0951
  108DOPC   H2R14800   3.188  10.911   5.672  1.5342 -1.7971  0.7003
  108DOPC   H2S14801   3.019  10.896   5.605 -0.7952  1.1398  2.2397
  108DOPC    C314802   2.869  11.031   6.004  0.7060 -0.6281  0.5637
  108DOPC    HX14803   2.961  11.091   6.023 -1.0506  3.0376 -1.3831
  108DOPC    HY14804   2.813  11.010   6.097 -1.0665 -3.4986 -1.0048
  108DOPC   O3114805   2.797  11.114   5.904 -0.0408 -0.2986  0.0608
  108DOPC   C3114806   2.662  11.093   5.905  0.8181 -0.0591  0.1471
  108DOPC   O3214807   2.602  11.018   5.979 -0.0296 -0.6236  1.0651
  108DOPC   C3214808   2.604  11.195   5.805  0.4163  0.0286  1.0481
  108DOPC   H2X14809   2.611  11.302   5.832  1.8394  0.3975 -0.5803
  108DOPC   H2Y14810   2.652  11.173   5.707 -1.4048  0.0493  0.0869
  108DOPC   C2314811   3.140  10.726   5.563  0.9467  0.2994 -0.3624
  108DOPC   H3R14812   3.063  10.646   5.570  0.7561  0.5309  0.2889
  108DOPC   H3S14813   3.233  10.676   5.597 -0.2514 -1.5801  0.3165
  108DOPC   C2414814   3.157  10.779   5.425  0.4835  0.1991  0.5811
  108DOPC   H4R14815   3.247  10.844   5.420 -1.2097  2.6897  0.6440
  108DOPC   H4S14816   3.066  10.836   5.397  0.2573 -0.5250 -0.2093
  108DOPC   C2514817   3.173  10.679   5.310 -0.1237 -0.1717 -0.1337
  108DOPC   H5R14818   3.069  10.659   5.276  0.5395 -0.8313 -1.8690
  108DOPC   H5S14819   3.222  10.593   5.359 -1.1048 -0.8037 -0.2362
  108DOPC   C2614820   3.254  10.726   5.196 -0.7785  1.1182 -0.1443
  108DOPC   H6R14821   3.251  10.643   5.122 -0.6997 -0.5813  1.6713
  108DOPC   H6S14822   3.359  10.744   5.226 -0.8104  3.0373 -1.0965
  108DOPC   C2714823   3.208  10.861   5.124  0.3358  0.3899  0.1002
  108DOPC   H7R14824   3.255  10.943   5.181  0.3161  0.2954  0.2559
  108DOPC   H7S14825   3.097  10.872   5.120 -0.0956 -1.8277  2.5228
  108DOPC   C2814826   3.267  10.875   4.979 -0.2736  0.3565 -0.4406
  108DOPC   H8R14827   3.231  10.971   4.935 -1.4033 -0.1390 -0.6301
  108DOPC   H8S14828   3.221  10.794   4.919 -1.2585  0.1966  0.5075
  108DOPC   C2914829   3.417  10.871   4.967 -0.6177 -0.4595  0.7656
  108DOPC   H9R14830   3.466  10.832   5.058 -3.3792  0.6440  2.8915
  108DOPC  C21014831   3.487  10.907   4.854  0.1048  0.1590 -0.5347
  108DOPC  H10R14832   3.594  10.883   4.844 -0.1722 -1.6369  0.3910
  108DOPC  C21114833   3.413  10.955   4.731 -0.6999  0.2567  0.3748
  108DOPC  H11R14834   3.339  11.037   4.744 -1.4915 -0.2694 -0.6810
  108DOPC  H11S14835   3.365  10.874   4.672 -1.2677 -0.2627  1.5278
  108DOPC  C21214836   3.517  11.020   4.634  0.1682 -0.3381 -0.3795
  108DOPC  H12R14837   3.565  11.101   4.692 -1.5596 -0.5747  1.5215
  108DOPC  H12S14838   3.453  11.052   4.548  1.3101 -1.0897 -1.5469
  108DOPC  C21314839   3.615  10.930   4.565 -0.1312 -0.3606 -0.5902
  108DOPC  H13R14840   3.569  10.839   4.520  0.1117 -0.0079 -1.5737
  108DOPC  H13S14841   3.693  10.900   4.637  0.0372 -1.3405 -1.1672
  108DOPC  C21414842   3.687  11.002   4.447  0.1937  0.2032  0.0148
  108DOPC  H14R14843   3.725  11.102   4.476  0.2196  0.1239  0.2582
  108DOPC  H14S14844   3.607  11.016   4.371  0.2774  3.9536  0.4089
  108DOPC  C21514845   3.794  10.911   4.383 -0.1822  0.5314 -0.5042
  108DOPC  H15R14846   3.741  10.821   4.345 -0.2106  0.0483  0.6294
  108DOPC  H15S14847   3.867  10.882   4.462 -0.7407  1.4800  0.3851
  108DOPC  C21614848   3.861  10.972   4.261 -0.1061 -0.3459 -0.7423
  108DOPC  H16R14849   3.777  11.007   4.198  0.1607 -1.4549 -1.7633
  108DOPC  H16S14850   3.917  10.893   4.206  2.1727  0.0258  0.8641
  108DOPC  C21714851   3.951  11.087   4.303 -0.0543  0.2213  0.7643
  108DOPC  H17R14852   4.028  11.055   4.375  0.0567 -1.8435 -0.1915
  108DOPC  H17S14853   3.891  11.162   4.359 -3.0877 -0.8789 -0.7231
  108DOPC  C21814854   4.016  11.168   4.195 -0.0479  0.2605 -0.2376
  108DOPC  H18R14855   3.951  11.196   4.109 -1.6935  0.5060  1.0451
  108DOPC  H18S14856   4.096  11.102   4.153 -0.5127 -0.5505  0.1315
  108DOPC  H18T14857   4.057  11.263   4.234  0.8404  0.4235 -1.4790
  108DOPC   C3314858   2.454  11.158   5.770 -0.3249 -0.1619 -0.0759
  108DOPC   H3X14859   2.384  11.163   5.857 -0.9795  3.1784 -0.6609
  108DOPC   H3Y14860   2.448  11.051   5.741 -0.4819 -0.1750  0.0055
  108DOPC   C3414861   2.396  11.246   5.657  0.1957 -0.4826  0.5062
  108DOPC   H4X14862   2.413  11.353   5.679 -2.2789  0.1604 -0.3696
  108DOPC   H4Y14863   2.286  11.234   5.658  0.1813 -0.3432  1.6303
  108DOPC   C3514864   2.432  11.200   5.509 -0.6148 -0.3583 -0.1943
  108DOPC   H5X14865   2.384  11.101   5.495 -2.0208  0.6118 -3.0508
  108DOPC   H5Y14866   2.540  11.198   5.482 -0.8382  1.8599 -1.5075
  108DOPC   C3614867   2.381  11.292   5.407 -0.3172  0.1273 -0.7413
  108DOPC   H6X14868   2.272  11.306   5.420 -0.0953  0.0679  1.5870
  108DOPC   H6Y14869   2.427  11.393   5.397  1.4138 -0.6937 -1.4774
  108DOPC   C3714870   2.407  11.231   5.267 -0.0899  0.1858  0.2943
  108DOPC   H7X14871   2.512  11.203   5.248 -0.0960  0.7266 -0.5702
  108DOPC   H7Y14872   2.350  11.135   5.266 -1.2131  0.8356 -1.2010
  108DOPC   C3814873   2.371  11.313   5.143 -0.3432  0.7104  0.8003
  108DOPC   H8X14874   2.405  11.252   5.056  0.3430 -1.5397  2.5488
  108DOPC   H8Y14875   2.433  11.405   5.146  2.2648 -0.9436  1.6966
  108DOPC   C3914876   2.228  11.345   5.115 -0.4805  0.4488  0.6006
  108DOPC   H9X14877   2.154  11.273   5.153 -1.1248  1.1263  0.6550
  108DOPC  C31014878   2.184  11.449   5.034  0.3543  0.4815 -0.1759
  108DOPC  H10X14879   2.076  11.457   5.018  0.5453  1.8372 -1.0097
  108DOPC  C31114880   2.263  11.559   4.962 -0.2175 -0.1555 -0.2486
  108DOPC  H11X14881   2.290  11.531   4.858  2.8538  1.9318 -0.1297
  108DOPC  H11Y14882   2.360  11.596   5.002 -0.3608  0.0080 -0.0466
  108DOPC  C31214883   2.167  11.680   4.952  0.3470 -0.4954  0.4348
  108DOPC  H12X14884   2.134  11.707   5.055  0.7947  0.4320  0.3512
  108DOPC  H12Y14885   2.068  11.653   4.908  0.8297 -0.2926 -0.8024
  108DOPC  C31314886   2.228  11.807   4.884 -0.3791  0.2553 -0.4454
  108DOPC  H13X14887   2.326  11.827   4.930  0.0397 -1.5009 -0.4763
  108DOPC  H13Y14888   2.236  11.782   4.776  0.0168 -0.7605 -0.1948
  108DOPC  C31414889   2.143  11.933   4.895 -0.4671  0.2626 -0.1156
  108DOPC  H14X14890   2.059  11.923   4.823  0.2794 -1.4725 -0.8027
  108DOPC  H14Y14891   2.116  11.940   5.003  0.2927  1.0226  0.0316
  108DOPC  C31514892   2.222  12.066   4.872  0.4433 -0.6222  0.4425
  108DOPC  H15X14893   2.260  12.051   4.768 -1.4490  0.1120 -0.4119
  108DOPC  H15Y14894   2.311  12.087   4.935  0.6388  0.3526 -0.1312
  108DOPC  C31614895   2.132  12.194   4.864  0.5654  0.4559 -0.1157
  108DOPC  H16X14896   2.189  12.270   4.808 -0.8215  2.1454  0.6419
  108DOPC  H16Y14897   2.036  12.165   4.815  0.6726  0.4836 -0.3422
  108DOPC  C31714898   2.095  12.252   4.995  0.3981 -0.5293  0.1195
  108DOPC  H17X14899   2.038  12.181   5.059  2.7577 -1.1358  1.6648
  108DOPC  H17Y14900   2.190  12.268   5.049  1.5409  0.2533 -2.0092
  108DOPC  C31814901   2.011  12.388   4.996  0.3623  1.2076 -0.1544
  108DOPC  H18X14902   1.903  12.367   4.979  0.5405 -1.0040  1.1312
  108DOPC  H18Y14903   2.010  12.439   5.095  2.6181  0.7771  0.1403
  108DOPC  H18Z14904   2.048  12.469   4.930 -0.7805  1.4942 -0.4654
  109DOPC     N14905   3.837   1.988   6.379  0.1650  1.0713  0.5181
  109DOPC   C1214906   3.778   1.992   6.234 -0.0056 -0.4176  0.3690
  109DOPC  H12A14907   3.706   2.071   6.217 -0.2361 -1.2031 -2.7588
  109DOPC  H12B14908   3.723   1.901   6.216  0.6362 -0.6866 -0.2514
  109DOPC   C1314909   3.740   1.931   6.479  0.3640 -0.3996 -0.1214
  109DOPC  H13A14910   3.724   1.827   6.454 -1.8332 -0.2083  0.2520
  109DOPC  H13B14911   3.762   1.943   6.584 -0.9177 -0.1009  0.1246
  109DOPC  H13C14912   3.647   1.987   6.472  1.0202  0.8172  0.5113
  109DOPC   C1414913   3.864   2.127   6.417 -0.4804  0.0514 -0.2703
  109DOPC  H14A14914   3.776   2.189   6.425  0.7707  1.7900  0.6597
  109DOPC  H14B14915   3.905   2.117   6.516 -1.7664  0.0259  0.2720
  109DOPC  H14C14916   3.946   2.166   6.357  2.1273 -1.4217  2.1156
  109DOPC   C1514917   3.962   1.901   6.383  0.1436 -0.5586  0.0116
  109DOPC  H15A14918   4.023   1.940   6.304 -0.1939  1.0731  0.5127
  109DOPC  H15B14919   3.942   1.798   6.356 -1.9144 -0.3021  0.4055
  109DOPC  H15C14920   4.018   1.911   6.475  2.2106  2.4145 -1.4422
  109DOPC   C1114921   3.874   1.998   6.107  0.7671  1.3187  0.0088
  109DOPC  H11A14922   3.954   1.922   6.108 -0.5306 -0.1062 -0.6789
  109DOPC  H11B14923   3.821   1.980   6.011  0.7884  3.2871 -0.4160
  109DOPC     P14924   3.867   2.255   6.051  0.1634 -0.0698  0.1627
  109DOPC   O1314925   3.972   2.358   6.036 -0.2710 -0.3292 -0.4381
  109DOPC   O1414926   3.750   2.283   6.134  0.3601  0.0274 -0.1512
  109DOPC   O1214927   3.938   2.128   6.109  0.0107  0.1256 -0.2916
  109DOPC   O1114928   3.822   2.216   5.906  0.3883  1.0391 -0.3487
  109DOPC    C114929   3.913   2.166   5.807 -0.5020 -0.7484  0.3009
  109DOPC    HA14930   3.902   2.056   5.799 -1.3376 -0.7028  0.7445
  109DOPC    HB14931   4.022   2.176   5.829 -0.0468 -2.9566 -0.6953
  109DOPC    C214932   3.878   2.247   5.670  0.3636  0.1401 -1.2113
  109DOPC    HS14933   3.891   2.356   5.688  0.1033  0.1628 -1.1607
  109DOPC   O2114934   3.754   2.203   5.628  0.1262 -0.2070  0.4759
  109DOPC   C2114935   3.662   2.295   5.599  0.2623 -0.5982 -0.2755
  109DOPC   O2214936   3.680   2.412   5.600 -0.0457  0.1526  0.1565
  109DOPC   C2214937   3.534   2.230   5.541 -0.0681 -0.2946  0.4801
  109DOPC   H2R14938   3.459   2.211   5.622  0.2992  0.0786  0.9143
  109DOPC   H2S14939   3.560   2.131   5.498 -0.7310 -0.6963  0.9763
  109DOPC    C314940   3.992   2.225   5.570 -0.5852  0.0922  0.2382
  109DOPC    HX14941   4.003   2.117   5.546  0.4513  0.4561 -1.0458
  109DOPC    HY14942   4.092   2.236   5.618  0.2193 -0.7479 -1.1538
  109DOPC   O3114943   3.986   2.300   5.446  0.7035 -0.0695 -0.3591
  109DOPC   C3114944   4.009   2.431   5.460  0.3904  0.7466 -0.1717
  109DOPC   O3214945   4.036   2.488   5.564 -0.0604  0.6388  0.6556
  109DOPC   C3214946   4.005   2.493   5.319  0.0140  0.1213  0.4273
  109DOPC   H2X14947   4.107   2.485   5.277  0.2137  1.5822  0.5661
  109DOPC   H2Y14948   3.924   2.437   5.267 -0.8134  0.6940  1.0682
  109DOPC   C2314949   3.472   2.324   5.437  0.4609 -0.2631  0.2559
  109DOPC   H3R14950   3.429   2.416   5.483  0.3110 -0.4364  0.4680
  109DOPC   H3S14951   3.377   2.280   5.399 -0.3555  0.7896  1.0199
  109DOPC   C2414952   3.562   2.336   5.308 -0.1183  0.2726 -0.0618
  109DOPC   H4R14953   3.589   2.229   5.291  2.0223  0.3014  2.5385
  109DOPC   H4S14954   3.660   2.386   5.322  0.2467  0.2964 -2.3139
  109DOPC   C2514955   3.495   2.408   5.191  0.0827  0.2617 -0.2482
  109DOPC   H5R14956   3.414   2.341   5.157 -0.9531 -0.0614  2.5789
  109DOPC   H5S14957   3.578   2.427   5.119 -0.5123 -1.4927 -1.4667
  109DOPC   C2614958   3.429   2.545   5.228  0.2826 -0.1087 -0.4690
  109DOPC   H6R14959   3.355   2.538   5.311  0.9163  0.9100  0.2129
  109DOPC   H6S14960   3.384   2.573   5.131 -2.0333 -0.9157  0.3080
  109DOPC   C2714961   3.527   2.639   5.285 -0.4091 -0.4198 -0.4201
  109DOPC   H7R14962   3.629   2.636   5.241 -0.1917  0.4149  0.0251
  109DOPC   H7S14963   3.549   2.619   5.392 -1.0806 -1.5533 -0.4692
  109DOPC   C2814964   3.500   2.787   5.263 -0.2515  0.0272  0.5035
  109DOPC   H8R14965   3.486   2.795   5.153 -1.0992  1.5929  0.6926
  109DOPC   H8S14966   3.589   2.847   5.291  0.1819 -0.7459  0.8145
  109DOPC   C2914967   3.387   2.834   5.343 -0.3302 -0.5311  0.1161
  109DOPC   H9R14968   3.397   2.827   5.453  3.0928  0.0845 -0.0520
  109DOPC  C21014969   3.262   2.857   5.291 -0.6033 -0.2421 -0.3203
  109DOPC  H10R14970   3.188   2.906   5.355  1.1210  1.3625  0.5528
  109DOPC  C21114971   3.229   2.852   5.148 -0.1403 -0.0303 -0.5957
  109DOPC  H11R14972   3.141   2.788   5.127  0.3302 -0.6645 -0.6846
  109DOPC  H11S14973   3.314   2.811   5.089  1.7367  0.9405  1.2975
  109DOPC  C21214974   3.180   2.981   5.075  0.1026 -0.2482 -0.3991
  109DOPC  H12R14975   3.208   3.072   5.133 -0.4864  0.3427 -1.0256
  109DOPC  H12S14976   3.071   2.989   5.093  0.5031  2.5730  1.3683
  109DOPC  C21314977   3.211   2.979   4.935 -0.5194 -0.5789 -0.0534
  109DOPC  H13R14978   3.159   2.895   4.885 -1.4159 -0.9289  1.4251
  109DOPC  H13S14979   3.320   2.973   4.912 -0.5850 -3.0660  0.0328
  109DOPC  C21414980   3.163   3.107   4.870  0.3377 -0.1131  0.1305
  109DOPC  H14R14981   3.224   3.196   4.895 -1.0367  1.2299 -1.1290
  109DOPC  H14S14982   3.057   3.127   4.895 -0.6155 -0.9719 -2.8278
  109DOPC  C21514983   3.155   3.092   4.714 -0.0020 -0.8878 -0.8374
  109DOPC  H15R14984   3.128   2.988   4.685 -0.9450 -1.3207  1.4141
  109DOPC  H15S14985   3.249   3.109   4.657 -0.0516 -0.6979 -0.8606
  109DOPC  C21614986   3.051   3.193   4.654 -0.3374 -0.1476 -0.1606
  109DOPC  H16R14987   2.959   3.184   4.715  0.7278 -0.1748  1.5211
  109DOPC  H16S14988   3.040   3.167   4.547  0.9072 -0.9542 -0.1138
  109DOPC  C21714989   3.105   3.341   4.667 -0.3604 -0.4827 -0.3997
  109DOPC  H17R14990   3.182   3.356   4.588 -0.5946  0.9310 -0.3796
  109DOPC  H17S14991   3.159   3.359   4.762  0.9146  1.3875 -1.4047
  109DOPC  C21814992   3.010   3.458   4.643 -0.2655  0.4189 -0.0450
  109DOPC  H18R14993   2.944   3.465   4.733  2.5135  3.5303  1.9849
  109DOPC  H18S14994   2.964   3.444   4.543 -3.6603 -0.5379  1.4718
  109DOPC  H18T14995   3.067   3.553   4.637  0.5651 -0.0891 -0.2506
  109DOPC   C3314996   3.959   2.639   5.333  0.8663 -0.6474  0.2723
  109DOPC   H3X14997   4.040   2.706   5.369  1.5745 -0.5630 -1.4022
  109DOPC   H3Y14998   3.876   2.647   5.407  1.1311 -0.1117  0.5119
  109DOPC   C3414999   3.914   2.701   5.199 -0.0095 -0.1809 -0.1706
  109DOPC   H4X15000   3.815   2.657   5.174 -1.4951  2.3214  0.9468
  109DOPC   H4Y15001   3.991   2.691   5.119  0.8311 -0.4102  0.6378
  109DOPC   C3515002   3.882   2.845   5.211  0.0499  0.3467  0.5557
  109DOPC   H5X15003   3.972   2.899   5.247  0.2722 -1.8208  3.6004
  109DOPC   H5Y15004   3.804   2.869   5.286 -0.9996  0.6100 -0.5954
  109DOPC   C3615005   3.828   2.896   5.075 -0.3557  0.0541 -0.0854
  109DOPC   H6X15006   3.756   2.826   5.028 -1.3315  1.4494 -0.7272
  109DOPC   H6Y15007   3.782   2.995   5.095  0.3122 -0.0341  2.1901
  109DOPC   C3715008   3.935   2.922   4.973 -0.4650 -0.7887  0.1185
  109DOPC   H7X15009   4.021   2.971   5.023  0.2547  0.3787 -2.1175
  109DOPC   H7Y15010   3.966   2.821   4.938 -4.1729 -2.2329  0.5899
  109DOPC   C3815011   3.894   3.019   4.861 -0.3156  0.3088  0.6635
  109DOPC   H8X15012   3.855   3.114   4.903  0.0546  0.9582 -0.4176
  109DOPC   H8Y15013   3.805   2.981   4.807 -0.6164  1.3310  0.4112
  109DOPC   C3915014   4.008   3.046   4.769 -0.1155  0.3426 -0.7192
  109DOPC   H9X15015   4.066   3.137   4.792 -2.7908  2.0177 -0.0687
  109DOPC  C31015016   4.058   2.960   4.672  0.3355 -0.0065 -0.3099
  109DOPC  H10X15017   4.131   2.991   4.596  2.8607 -1.2849  1.4418
  109DOPC  C31115018   3.997   2.829   4.642 -0.0611  0.3471 -0.4243
  109DOPC  H11X15019   3.932   2.790   4.723  0.9477  1.1869  0.8191
  109DOPC  H11Y15020   4.072   2.747   4.635 -0.4325 -0.1823  1.2830
  109DOPC  C31215021   3.901   2.809   4.522  0.0679 -0.4060  0.4766
  109DOPC  H12X15022   3.805   2.865   4.523  0.0711 -0.3686 -0.2976
  109DOPC  H12Y15023   3.869   2.704   4.509 -1.0942 -0.3071  2.2100
  109DOPC  C31315024   3.973   2.834   4.389 -0.1360 -0.0102 -0.2012
  109DOPC  H13X15025   3.989   2.943   4.376 -0.0031  0.2041  1.5208
  109DOPC  H13Y15026   4.070   2.780   4.384  0.5300  1.2602 -2.7180
  109DOPC  C31415027   3.911   2.770   4.266  0.1316  0.1450  0.1481
  109DOPC  H14X15028   3.991   2.747   4.192  1.6617  2.4784  0.9700
  109DOPC  H14Y15029   3.862   2.674   4.293 -1.5973  0.2040 -2.4083
  109DOPC  C31515030   3.817   2.870   4.192 -0.6208  0.8040 -0.3347
  109DOPC  H15X15031   3.868   2.959   4.149  0.9694  0.2134  0.2568
  109DOPC  H15Y15032   3.753   2.899   4.278 -2.3058 -1.6386 -0.6665
  109DOPC  C31615033   3.719   2.803   4.091 -0.1853 -0.4501 -0.3949
  109DOPC  H16X15034   3.773   2.769   4.001 -1.2440  2.5458 -2.3438
  109DOPC  H16Y15035   3.655   2.725   4.138 -0.8174  0.7066  0.7398
  109DOPC  C31715036   3.615   2.901   4.050  0.7719 -0.4920 -0.4990
  109DOPC  H17X15037   3.582   2.970   4.131 -0.2874 -1.2890 -0.2157
  109DOPC  H17Y15038   3.665   2.972   3.981 -0.3902  1.5484  0.6676
  109DOPC  C31815039   3.486   2.839   3.988  0.0121 -0.4932 -0.4244
  109DOPC  H18X15040   3.410   2.916   3.964  1.8120  1.8206  0.8313
  109DOPC  H18Y15041   3.517   2.783   3.897 -1.5237 -0.6655 -0.8686
  109DOPC  H18Z15042   3.431   2.774   4.061  1.8459  0.4802  1.9764
  110DOPC     N15043   7.917   4.916   5.958  0.3142 -0.2343  0.2864
  110DOPC   C1215044   7.882   5.041   5.882  0.0964 -0.9859  0.0797
  110DOPC  H12A15045   7.811   5.103   5.935 -2.0192 -0.2092 -3.3365
  110DOPC  H12B15046   7.820   5.018   5.796  0.4141 -0.2508 -0.3514
  110DOPC   C1315047   7.974   4.951   6.091 -0.1590 -0.5185  0.7236
  110DOPC  H13A15048   7.996   4.871   6.161  1.0024  0.7916  1.9175
  110DOPC  H13B15049   8.065   5.009   6.079 -0.1353 -0.7936 -0.6638
  110DOPC  H13C15050   7.904   5.021   6.133  1.3129  0.9990  0.7745
  110DOPC   C1415051   8.007   4.824   5.883 -0.2490  0.5203  0.2080
  110DOPC  H14A15052   8.029   4.734   5.938 -2.7113  0.2624  0.9146
  110DOPC  H14B15053   7.970   4.792   5.787 -1.3678  0.2791  0.7034
  110DOPC  H14C15054   8.105   4.864   5.862 -0.4247  0.0425 -1.7023
  110DOPC   C1515055   7.782   4.843   5.983 -0.3459  0.3116 -0.5753
  110DOPC  H15A15056   7.814   4.750   6.028  0.5039  1.3747  1.1085
  110DOPC  H15B15057   7.738   4.826   5.886  0.6764 -0.1881 -0.9591
  110DOPC  H15C15058   7.717   4.896   6.051  0.0064 -0.0941  0.0924
  110DOPC   C1115059   8.001   5.132   5.838  0.1699  0.5486  0.4352
  110DOPC  H11A15060   8.073   5.084   5.769  1.9701  2.8093  0.6293
  110DOPC  H11B15061   7.952   5.201   5.768 -0.4782  2.2243  2.4337
  110DOPC     P15062   8.227   5.178   5.976 -0.1671 -0.5494 -0.1533
  110DOPC   O1315063   8.239   5.084   6.090  0.3012  0.1076  0.1933
  110DOPC   O1415064   8.286   5.317   5.999  0.1568  0.2510  0.1177
  110DOPC   O1215065   8.072   5.194   5.945 -0.2912  0.8856  0.0617
  110DOPC   O1115066   8.292   5.107   5.844  0.0715  0.0463 -0.2649
  110DOPC    C115067   8.351   5.192   5.742  0.6747  0.7955  0.5134
  110DOPC    HA15068   8.461   5.196   5.756  1.0921 -0.7245 -1.8372
  110DOPC    HB15069   8.324   5.300   5.754 -0.2202  0.6953 -0.4657
  110DOPC    C215070   8.315   5.162   5.594 -0.8687 -0.2963 -0.5066
  110DOPC    HS15071   8.396   5.213   5.537 -1.4586  0.3474 -0.7776
  110DOPC   O2115072   8.185   5.210   5.556 -0.4951  0.0633 -0.2624
  110DOPC   C2115073   8.179   5.341   5.544  0.1411  0.1241  0.2330
  110DOPC   O2215074   8.264   5.428   5.554  0.5145  0.6867  0.0267
  110DOPC   C2215075   8.028   5.373   5.530 -0.1392  1.1151 -0.6356
  110DOPC   H2R15076   7.979   5.373   5.630  1.5756 -0.6405  0.2810
  110DOPC   H2S15077   7.975   5.298   5.467  0.2158  0.9382 -0.7242
  110DOPC    C315078   8.327   5.009   5.558 -0.4783 -0.3679 -0.7309
  110DOPC    HX15079   8.243   4.960   5.612 -0.9695 -0.7890 -1.8550
  110DOPC    HY15080   8.426   4.974   5.596  0.0863 -1.0696 -2.6923
  110DOPC   O3115081   8.318   4.984   5.416  0.4583  0.1100  0.2409
  110DOPC   C3115082   8.226   4.896   5.377  0.1678  0.1627 -0.7072
  110DOPC   O3215083   8.145   4.844   5.452  0.0520 -0.1495  0.0679
  110DOPC   C3215084   8.244   4.877   5.226 -0.1116 -0.3961  0.1394
  110DOPC   H2X15085   8.239   4.970   5.166 -0.5599 -0.6144 -0.1731
  110DOPC   H2Y15086   8.345   4.833   5.214 -0.2029 -1.2963  2.1470
  110DOPC   C2315087   7.995   5.508   5.465  0.2353  0.3707  0.0823
  110DOPC   H3R15088   8.023   5.499   5.358 -1.2000 -1.4754 -0.1736
  110DOPC   H3S15089   8.053   5.589   5.514  1.5718 -0.3307 -0.2967
  110DOPC   C2415090   7.850   5.554   5.468 -0.4176 -0.3742 -0.6500
  110DOPC   H4R15091   7.842   5.587   5.574  2.9978  0.1682 -0.4372
  110DOPC   H4S15092   7.787   5.462   5.460 -0.2630 -0.5793  0.3094
  110DOPC   C2515093   7.804   5.650   5.359 -0.7582 -0.0667  0.1743
  110DOPC   H5R15094   7.887   5.721   5.340 -0.4009 -0.6191 -0.3421
  110DOPC   H5S15095   7.722   5.715   5.395 -1.4536 -1.1468  0.6208
  110DOPC   C2615096   7.773   5.561   5.239 -0.4059 -0.3821  0.9504
  110DOPC   H6R15097   7.690   5.494   5.271 -1.3323 -0.7621 -1.9498
  110DOPC   H6S15098   7.867   5.510   5.208  1.1692  1.1227  2.9518
  110DOPC   C2715099   7.707   5.636   5.117 -0.8466  0.3365 -0.2058
  110DOPC   H7R15100   7.615   5.679   5.162 -1.2067  0.0028 -0.6129
  110DOPC   H7S15101   7.682   5.560   5.040  3.3167 -0.6390 -0.8187
  110DOPC   C2815102   7.801   5.751   5.067 -0.1187 -0.1762  0.8914
  110DOPC   H8R15103   7.904   5.710   5.058  1.1020  3.0583 -2.7433
  110DOPC   H8S15104   7.805   5.839   5.133  1.6026  0.7668 -0.3799
  110DOPC   C2915105   7.758   5.815   4.932  0.1045 -0.3048  0.5861
  110DOPC   H9R15106   7.724   5.919   4.939  1.1008  0.3540 -2.6925
  110DOPC  C21015107   7.762   5.759   4.812  0.8442 -1.3535 -0.1971
  110DOPC  H10R15108   7.749   5.819   4.720 -1.7743 -0.1425  0.8493
  110DOPC  C21115109   7.805   5.616   4.789  0.1444 -0.1844  0.0474
  110DOPC  H11R15110   7.837   5.554   4.876  1.5683 -1.7442 -1.5085
  110DOPC  H11S15111   7.893   5.596   4.725 -1.1363 -2.3332 -1.1694
  110DOPC  C21215112   7.685   5.547   4.724  0.1056 -0.3413  0.2966
  110DOPC  H12R15113   7.670   5.600   4.628  1.4109 -0.3665  0.0581
  110DOPC  H12S15114   7.591   5.543   4.782  0.2604 -1.1158  0.5088
  110DOPC  C21315115   7.706   5.399   4.694  0.6550  0.4148  0.4301
  110DOPC  H13R15116   7.808   5.371   4.661 -0.5024 -2.7181 -0.8978
  110DOPC  H13S15117   7.645   5.371   4.605  1.2059 -0.0932  0.2076
  110DOPC  C21415118   7.684   5.302   4.814  0.4994  0.8140 -0.1121
  110DOPC  H14R15119   7.576   5.279   4.827  0.5746 -3.0407 -3.8891
  110DOPC  H14S15120   7.721   5.350   4.907 -0.9620  1.0019  0.3851
  110DOPC  C21515121   7.749   5.167   4.789 -0.4889 -0.2251 -0.3960
  110DOPC  H15R15122   7.859   5.175   4.777 -0.5350  0.3108 -0.4699
  110DOPC  H15S15123   7.707   5.131   4.692 -0.6218 -1.2851  0.0338
  110DOPC  C21615124   7.706   5.067   4.892  0.1492  0.7556 -0.1467
  110DOPC  H16R15125   7.597   5.046   4.883  0.0011  0.5004  1.7184
  110DOPC  H16S15126   7.711   5.112   4.994  0.1776 -0.6085  0.4722
  110DOPC  C21715127   7.790   4.934   4.903  0.4538 -0.2331 -0.2051
  110DOPC  H17R15128   7.890   4.957   4.944  0.8678 -1.1375 -0.6664
  110DOPC  H17S15129   7.801   4.878   4.807 -0.3050 -1.3391  0.3384
  110DOPC  C21815130   7.722   4.834   4.997  0.0847 -0.1252  0.4052
  110DOPC  H18R15131   7.629   4.790   4.956 -0.2498  0.8962  0.0307
  110DOPC  H18S15132   7.699   4.890   5.090 -2.4119 -0.7565  0.2413
  110DOPC  H18T15133   7.793   4.751   5.015  0.4423  0.3274  1.1489
  110DOPC   C3315134   8.135   4.783   5.166 -0.4666  0.5373  0.1962
  110DOPC   H3X15135   8.046   4.849   5.155  0.0557  1.1164 -0.6959
  110DOPC   H3Y15136   8.115   4.691   5.224  0.6954 -0.4766 -0.9310
  110DOPC   C3415137   8.181   4.738   5.022 -0.9005 -0.7012  0.4343
  110DOPC   H4X15138   8.280   4.689   5.034 -1.1520 -1.2635  0.2462
  110DOPC   H4Y15139   8.197   4.829   4.960  0.0216  0.0545  1.7364
  110DOPC   C3515140   8.092   4.633   4.961 -0.1450 -0.6884 -0.5503
  110DOPC   H5X15141   7.995   4.668   4.919  0.2483  0.8500 -0.2604
  110DOPC   H5Y15142   8.073   4.559   5.041  3.3272 -0.0576  1.0571
  110DOPC   C3615143   8.166   4.545   4.853  0.2208 -0.0032  0.2698
  110DOPC   H6X15144   8.221   4.613   4.784  1.1791 -1.9026 -0.9139
  110DOPC   H6Y15145   8.249   4.493   4.905 -0.7398 -1.4053  0.4490
  110DOPC   C3715146   8.082   4.461   4.758 -0.1766 -0.1228  0.2751
  110DOPC   H7X15147   8.040   4.378   4.818 -1.0813  0.9372  1.1784
  110DOPC   H7Y15148   7.993   4.521   4.729 -0.4938 -0.4853  0.5087
  110DOPC   C3815149   8.165   4.397   4.647  0.1450  0.9069 -0.1660
  110DOPC   H8X15150   8.247   4.340   4.697 -0.8149 -0.0014  0.4138
  110DOPC   H8Y15151   8.217   4.478   4.591 -3.1733  1.4762 -2.6981
  110DOPC   C3915152   8.086   4.305   4.559  0.1180 -0.4919  0.3661
  110DOPC   H9X15153   7.976   4.306   4.553  0.1804  0.3421 -3.8094
  110DOPC  C31015154   8.143   4.211   4.486  0.0650 -0.2079  0.1502
  110DOPC  H10X15155   8.080   4.142   4.429  1.6389 -0.9062 -0.8084
  110DOPC  C31115156   8.292   4.186   4.473 -0.6685  0.0572  0.2129
  110DOPC  H11X15157   8.329   4.121   4.556 -0.4517 -1.6320 -1.1429
  110DOPC  H11Y15158   8.352   4.278   4.486  1.1047 -1.0829  0.5808
  110DOPC  C31215159   8.327   4.132   4.337  1.0667  0.0309  0.2378
  110DOPC  H12X15160   8.436   4.115   4.328  0.7148 -1.8653 -1.2076
  110DOPC  H12Y15161   8.290   4.195   4.252  1.9390 -0.9059 -0.8723
  110DOPC  C31315162   8.274   3.985   4.320  0.6510 -0.6800 -0.5297
  110DOPC  H13X15163   8.349   3.929   4.379 -0.6723 -0.8573  1.0592
  110DOPC  H13Y15164   8.166   3.984   4.348  0.1834  2.0025 -1.8687
  110DOPC  C31415165   8.275   3.934   4.177 -0.5940 -0.3857 -0.0402
  110DOPC  H14X15166   8.194   3.984   4.119  0.2774  0.4594 -0.5424
  110DOPC  H14Y15167   8.368   3.971   4.130 -1.7625 -0.2836 -2.4265
  110DOPC  C31515168   8.262   3.783   4.172 -0.7081 -1.0726  0.1955
  110DOPC  H15X15169   8.184   3.755   4.246 -0.9516  0.1613  0.4269
  110DOPC  H15Y15170   8.357   3.733   4.200 -0.1651 -0.0872  0.1364
  110DOPC  C31615171   8.217   3.728   4.037  0.8337 -0.3082 -0.0211
  110DOPC  H16X15172   8.203   3.617   4.041 -2.2721  0.0059  0.2000
  110DOPC  H16Y15173   8.118   3.772   4.011 -0.8523 -4.1192 -0.7555
  110DOPC  C31715174   8.312   3.759   3.924  0.1216 -0.0632 -0.6046
  110DOPC  H17X15175   8.316   3.869   3.938  2.2756 -0.2498  0.7341
  110DOPC  H17Y15176   8.412   3.720   3.952  1.1189  1.3963 -1.9439
  110DOPC  C31815177   8.268   3.709   3.787  0.4705  0.0408  0.0172
  110DOPC  H18X15178   8.349   3.728   3.713  1.9449  0.9990  1.7965
  110DOPC  H18Y15179   8.239   3.602   3.784 -0.5196  0.2306  1.5746
  110DOPC  H18Z15180   8.175   3.766   3.767 -1.9599 -3.3216  0.8653
  111DOPC     N15181   8.224  10.472   6.286 -0.1376 -0.7102 -0.4505
  111DOPC   C1215182   8.204  10.569   6.173 -0.8671  0.6369  0.0507
  111DOPC  H12A15183   8.108  10.618   6.168 -1.0298  0.3367  0.2041
  111DOPC  H12B15184   8.205  10.508   6.084 -2.3032  0.6012  0.0306
  111DOPC   C1315185   8.221  10.547   6.421 -0.2902 -0.1531 -0.1021
  111DOPC  H13A15186   8.123  10.593   6.432  0.3956  1.3522  0.0323
  111DOPC  H13B15187   8.238  10.485   6.508 -2.3868 -0.5898  0.0501
  111DOPC  H13C15188   8.298  10.623   6.427 -0.5824  0.0545  1.9071
  111DOPC   C1415189   8.361  10.421   6.279  0.5182 -0.3049 -0.2877
  111DOPC  H14A15190   8.433  10.496   6.306 -1.5587  1.2236  1.2901
  111DOPC  H14B15191   8.368  10.337   6.347  0.3962 -0.5365 -0.5582
  111DOPC  H14C15192   8.392  10.389   6.180  1.0070 -3.4505  0.7648
  111DOPC   C1515193   8.134  10.359   6.280 -0.5112  0.3646 -0.5559
  111DOPC  H15A15194   8.153  10.306   6.372 -0.9957  2.2585  0.6792
  111DOPC  H15B15195   8.163  10.300   6.194 -3.3603 -0.3686 -1.1208
  111DOPC  H15C15196   8.030  10.386   6.272 -0.8855 -0.6385  0.6773
  111DOPC   C1115197   8.308  10.681   6.164 -0.5402 -1.0712 -0.2800
  111DOPC  H11A15198   8.413  10.650   6.184 -0.7232 -0.0647  2.8385
  111DOPC  H11B15199   8.310  10.704   6.056  1.3407 -1.1787 -0.2986
  111DOPC     P15200   8.186  10.903   6.206  0.1546 -0.4788  0.0753
  111DOPC   O1315201   8.168  11.002   6.313  0.5201 -0.1797  0.4270
  111DOPC   O1415202   8.068  10.849   6.140  0.2781  0.3587  0.0382
  111DOPC   O1215203   8.275  10.784   6.255  0.9670  0.0765  0.5287
  111DOPC   O1115204   8.277  10.968   6.104  0.0481  0.3634 -0.0796
  111DOPC    C115205   8.249  11.093   6.040 -0.1618  0.0284  0.2413
  111DOPC    HA15206   8.292  11.169   6.109  1.7645 -2.0864  1.5596
  111DOPC    HB15207   8.141  11.112   6.025 -0.8164 -3.5743 -0.5078
  111DOPC    C215208   8.322  11.110   5.899  0.4824  0.3168  0.1653
  111DOPC    HS15209   8.272  11.190   5.841 -0.4868  1.2401  2.2155
  111DOPC   O2115210   8.312  10.987   5.815  0.2580  0.5621 -0.3769
  111DOPC   C2115211   8.196  10.938   5.788  0.7160  0.3694 -0.7272
  111DOPC   O2215212   8.089  10.991   5.823 -0.2928  0.0077  0.5044
  111DOPC   C2215213   8.210  10.805   5.725  0.3873 -0.3498  0.8414
  111DOPC   H2R15214   8.115  10.747   5.737  0.1406 -0.6906 -1.9770
  111DOPC   H2S15215   8.288  10.748   5.780  1.1172 -1.5685 -1.3134
  111DOPC    C315216   8.466  11.142   5.914  0.0571 -0.7956 -0.5882
  111DOPC    HX15217   8.519  11.051   5.949  2.0529  0.4490 -0.2291
  111DOPC    HY15218   8.484  11.217   5.994 -0.1030 -0.9362 -0.4195
  111DOPC   O3115219   8.516  11.191   5.793 -0.3476 -0.2425  0.8031
  111DOPC   C3115220   8.507  11.322   5.764 -0.0930  1.1517  0.9816
  111DOPC   O3215221   8.476  11.415   5.839 -0.5155 -0.5326  0.0409
  111DOPC   C3215222   8.548  11.333   5.617 -0.9555  0.3252 -0.2821
  111DOPC   H2X15223   8.599  11.432   5.612  0.3459 -0.3775 -1.3923
  111DOPC   H2Y15224   8.623  11.253   5.604  0.3454  1.7951 -2.6593
  111DOPC   C2315225   8.225  10.809   5.572 -0.9041  0.4002  0.2605
  111DOPC   H3R15226   8.296  10.892   5.550 -0.2161 -0.3333 -0.3208
  111DOPC   H3S15227   8.129  10.833   5.522 -1.3128  0.2946  0.9845
  111DOPC   C2415228   8.258  10.671   5.507 -0.6110  0.1305  0.4983
  111DOPC   H4R15229   8.173  10.601   5.522  0.3538 -1.4875 -1.1674
  111DOPC   H4S15230   8.344  10.628   5.562 -1.4082  2.6838  4.0774
  111DOPC   C2515231   8.282  10.683   5.356 -0.2489  0.1862 -0.0971
  111DOPC   H5R15232   8.326  10.588   5.320 -0.3490 -0.3386  1.1389
  111DOPC   H5S15233   8.354  10.767   5.342 -0.5983  0.4721 -0.2009
  111DOPC   C2615234   8.158  10.706   5.261  0.0959  0.3385 -0.0955
  111DOPC   H6R15235   8.117  10.806   5.284 -2.0039 -0.8078  1.5918
  111DOPC   H6S15236   8.084  10.626   5.284  0.0753  0.1652 -0.7398
  111DOPC   C2715237   8.187  10.694   5.107 -0.5247 -0.7318 -1.3960
  111DOPC   H7R15238   8.204  10.587   5.080  0.5424 -0.7096 -0.8650
  111DOPC   H7S15239   8.281  10.749   5.088 -1.0680  0.9421  0.4279
  111DOPC   C2815240   8.069  10.746   5.021 -0.2211  0.0557 -0.3557
  111DOPC   H8R15241   8.098  10.712   4.919  0.3340 -1.2836  0.2198
  111DOPC   H8S15242   8.063  10.857   5.026  0.3419  0.0713  0.0674
  111DOPC   C2915243   7.934  10.686   5.043  0.0144  0.3359 -0.7439
  111DOPC   H9R15244   7.919  10.676   5.151  1.2629  2.1148 -0.3525
  111DOPC  C21015245   7.846  10.644   4.949  0.7601 -0.0333  0.1101
  111DOPC  H10R15246   7.760  10.584   4.984 -0.5869  0.0196 -2.8072
  111DOPC  C21115247   7.852  10.665   4.801  0.1272 -1.2154  0.3013
  111DOPC  H11R15248   7.863  10.572   4.740 -2.0430 -0.6869 -1.0025
  111DOPC  H11S15249   7.932  10.738   4.777 -0.6737 -0.0424  1.1234
  111DOPC  C21215250   7.720  10.740   4.746 -1.0923 -0.1941  0.0050
  111DOPC  H12R15251   7.692  10.824   4.814 -1.2072 -0.1579 -0.0864
  111DOPC  H12S15252   7.644  10.660   4.757 -0.9185 -0.0346  4.4205
  111DOPC  C21315253   7.727  10.791   4.602 -0.1183 -1.2123 -0.0720
  111DOPC  H13R15254   7.755  10.704   4.539  1.3920 -0.4900 -0.4586
  111DOPC  H13S15255   7.806  10.869   4.590  0.7626 -2.0665  0.0342
  111DOPC  C21415256   7.591  10.843   4.562  0.2509  0.6151 -0.5078
  111DOPC  H14R15257   7.545  10.903   4.643  1.2001  2.0976 -1.0261
  111DOPC  H14S15258   7.531  10.752   4.541  1.9733 -0.2631 -1.9726
  111DOPC  C21515259   7.585  10.925   4.435  0.2288 -0.4486  0.1327
  111DOPC  H15R15260   7.655  11.008   4.457 -0.0451 -0.2159  0.1374
  111DOPC  H15S15261   7.484  10.967   4.416  1.1075  1.2558 -1.0215
  111DOPC  C21615262   7.633  10.855   4.303  0.0889  0.0567  0.6033
  111DOPC  H16R15263   7.553  10.790   4.261  0.6107  0.5298 -1.2195
  111DOPC  H16S15264   7.718  10.788   4.328  0.4885  0.3238 -0.0102
  111DOPC  C21715265   7.680  10.950   4.190 -0.9058  0.1276 -0.1854
  111DOPC  H17R15266   7.761  11.016   4.227 -0.7653  0.3109 -0.8010
  111DOPC  H17S15267   7.592  11.012   4.162 -1.0951 -0.4390 -0.8693
  111DOPC  C21815268   7.728  10.881   4.062 -0.4034 -0.3558  0.6054
  111DOPC  H18R15269   7.753  10.954   3.982 -0.1849  0.6118  1.5419
  111DOPC  H18S15270   7.662  10.799   4.025 -0.3432 -0.4482  0.7034
  111DOPC  H18T15271   7.829  10.841   4.084  0.3083  2.1779  2.3555
  111DOPC   C3315272   8.428  11.341   5.521  0.2996  0.8458 -0.0197
  111DOPC   H3X15273   8.457  11.373   5.418 -1.3946  1.5632 -0.3188
  111DOPC   H3Y15274   8.342  11.409   5.541  0.4253  1.8048 -2.3685
  111DOPC   C3415275   8.354  11.200   5.508 -0.1405 -0.2689 -0.2595
  111DOPC   H4X15276   8.316  11.172   5.609  0.8649 -0.5637  0.0534
  111DOPC   H4Y15277   8.420  11.112   5.496 -0.0188 -0.5921  2.2478
  111DOPC   C3515278   8.239  11.188   5.412  0.4946  1.0880 -0.0953
  111DOPC   H5X15279   8.179  11.279   5.430  0.9352  1.2210  0.7103
  111DOPC   H5Y15280   8.169  11.104   5.428  0.4124  1.0359 -0.7012
  111DOPC   C3615281   8.276  11.176   5.270  0.4181  0.1195 -0.2654
  111DOPC   H6X15282   8.183  11.171   5.209 -0.2385 -0.1278  0.7395
  111DOPC   H6Y15283   8.326  11.267   5.230 -0.2886  0.9461  0.6878
  111DOPC   C3715284   8.367  11.058   5.233 -0.0157  0.3454  0.0151
  111DOPC   H7X15285   8.461  11.080   5.287 -1.0031 -0.0866  2.0255
  111DOPC   H7Y15286   8.328  10.958   5.261  1.1487 -0.4973 -1.2409
  111DOPC   C3815287   8.397  11.068   5.083 -0.1958 -0.5786  0.1223
  111DOPC   H8X15288   8.429  11.172   5.066  2.9526 -1.7165 -1.6666
  111DOPC   H8Y15289   8.311  11.054   5.014  0.1654  0.0434 -0.4600
  111DOPC   C3915290   8.515  10.984   5.039 -0.0859 -0.8374  0.4056
  111DOPC   H9X15291   8.548  10.912   5.114 -0.6198 -0.0163  1.4698
  111DOPC  C31015292   8.571  10.989   4.916  0.4243 -0.6035  0.2182
  111DOPC  H10X15293   8.633  10.905   4.883  1.5281  0.7960 -1.4532
  111DOPC  C31115294   8.530  11.089   4.805  0.0754  0.7784 -0.2507
  111DOPC  H11X15295   8.624  11.129   4.760  0.5188 -3.0078 -3.1641
  111DOPC  H11Y15296   8.483  11.175   4.857  1.8314  0.3498  2.2379
  111DOPC  C31215297   8.442  11.020   4.703  0.3821  0.0064 -0.1892
  111DOPC  H12X15298   8.354  10.983   4.760  0.1791 -2.2344 -1.8006
  111DOPC  H12Y15299   8.486  10.934   4.647 -1.8897 -1.1558 -0.2954
  111DOPC  C31315300   8.398  11.128   4.605  0.0249  0.1374 -0.5805
  111DOPC  H13X15301   8.299  11.099   4.565  0.0512 -1.2159  0.2544
  111DOPC  H13Y15302   8.386  11.226   4.656 -0.8163 -0.1304 -0.2496
  111DOPC  C31415303   8.491  11.132   4.485 -0.5972 -0.6176  0.2161
  111DOPC  H14X15304   8.594  11.092   4.503  0.0015  0.1746 -1.2871
  111DOPC  H14Y15305   8.461  11.056   4.409  0.1118 -1.2119  0.5095
  111DOPC  C31515306   8.506  11.270   4.424  0.4291  0.0439  0.5198
  111DOPC  H15X15307   8.566  11.263   4.330 -0.7123  1.8965 -0.4066
  111DOPC  H15Y15308   8.569  11.329   4.494  1.8782 -0.7887 -0.0384
  111DOPC  C31615309   8.379  11.358   4.407 -0.0212  0.8905 -0.3301
  111DOPC  H16X15310   8.298  11.302   4.354  0.3122 -1.4111  1.4494
  111DOPC  H16Y15311   8.349  11.379   4.512 -0.9310 -0.0525 -0.3800
  111DOPC  C31715312   8.411  11.489   4.331 -0.2221 -0.5657 -0.2440
  111DOPC  H17X15313   8.494  11.540   4.384 -0.8691 -0.4692  0.6987
  111DOPC  H17Y15314   8.435  11.473   4.224 -0.5490  2.0437 -0.7609
  111DOPC  C31815315   8.301  11.594   4.325  1.1788  0.3438 -0.6021
  111DOPC  H18X15316   8.228  11.559   4.248 -0.4496  2.1706  0.0284
  111DOPC  H18Y15317   8.248  11.626   4.417 -0.7842 -1.3720 -1.0404
  111DOPC  H18Z15318   8.352  11.684   4.286 -1.3558  1.5008 -1.4802
  112DOPC     N15319  11.098  12.253   5.969  0.6283  0.1370  0.0704
  112DOPC   C1215320  10.983  12.341   6.030 -0.7656  0.0784  0.2852
  112DOPC  H12A15321  11.029  12.395   6.111 -0.3599 -0.6357  0.5398
  112DOPC  H12B15322  10.908  12.272   6.067  0.3329  0.5514  3.7153
  112DOPC   C1315323  11.146  12.162   6.078  0.0041 -0.2487  0.2188
  112DOPC  H13A15324  11.193  12.213   6.161  3.3656 -2.3367 -0.2233
  112DOPC  H13B15325  11.076  12.094   6.124 -0.5314  1.2256  1.6994
  112DOPC  H13C15326  11.218  12.093   6.039  1.7520  1.2579  0.6437
  112DOPC   C1415327  11.214  12.331   5.924 -0.4938 -0.5239  0.3169
  112DOPC  H14A15328  11.247  12.396   6.003  1.3553 -3.0576  1.7734
  112DOPC  H14B15329  11.298  12.271   5.890  1.0164  0.5324  2.0312
  112DOPC  H14C15330  11.190  12.396   5.841  1.4917  0.3649  0.3908
  112DOPC   C1515331  11.048  12.166   5.866  0.4215 -0.3710 -0.3067
  112DOPC  H15A15332  10.976  12.214   5.800 -0.5383 -0.8975  0.3308
  112DOPC  H15B15333  10.991  12.086   5.910  0.8549  1.1250  3.2994
  112DOPC  H15C15334  11.131  12.117   5.817  0.8358 -0.1280  0.1507
  112DOPC   C1115335  10.931  12.445   5.937 -0.6214  0.3108  0.6647
  112DOPC  H11A15336  11.007  12.511   5.889  0.0588 -2.0077 -1.6607
  112DOPC  H11B15337  10.877  12.400   5.851  0.6241  1.9311 -1.0511
  112DOPC     P15338  10.899  12.643   6.116  0.1473 -0.2868  0.3766
  112DOPC   O1315339  11.013  12.589   6.195  0.7075  0.2884  0.0047
  112DOPC   O1415340  10.782  12.704   6.191 -0.2357 -0.2698 -0.6192
  112DOPC   O1215341  10.844  12.529   6.017  0.3397 -0.7392  0.2391
  112DOPC   O1115342  10.958  12.744   6.008  0.9114 -0.4133 -0.2109
  112DOPC    C115343  10.856  12.797   5.914  0.7146  0.3340  0.6976
  112DOPC    HA15344  10.857  12.907   5.901 -3.3051  0.4081 -0.2163
  112DOPC    HB15345  10.755  12.780   5.956  0.6760  0.4278  0.6436
  112DOPC    C215346  10.866  12.739   5.770 -0.2086 -0.5386 -0.3848
  112DOPC    HS15347  10.839  12.632   5.773  1.5416 -1.0142  0.2854
  112DOPC   O2115348  11.001  12.761   5.719  0.1810  0.2997 -0.5786
  112DOPC   C2115349  11.038  12.676   5.628  0.1719  0.5218 -0.6314
  112DOPC   O2215350  10.975  12.573   5.604  0.5946 -0.6401 -0.4050
  112DOPC   C2215351  11.166  12.720   5.559 -0.4999  1.0367  0.9387
  112DOPC   H2R15352  11.225  12.777   5.635 -1.4489  3.4573 -0.0204
  112DOPC   H2S15353  11.138  12.802   5.489 -0.6037  0.6360  0.5105
  112DOPC    C315354  10.759  12.801   5.672 -0.9150  0.1649 -0.4563
  112DOPC    HX15355  10.659  12.783   5.717  0.6447 -1.4113  2.7442
  112DOPC    HY15356  10.749  12.742   5.578 -0.7977  1.8565 -1.5602
  112DOPC   O3115357  10.792  12.940   5.642 -0.3658  0.2972  0.5045
  112DOPC   C3115358  10.681  13.010   5.612  0.0913 -0.5094  0.5084
  112DOPC   O3215359  10.568  12.964   5.618 -0.0965 -0.0366  0.0754
  112DOPC   C3215360  10.725  13.156   5.590  0.3848  1.0612  0.2986
  112DOPC   H2X15361  10.770  13.184   5.687 -0.2643 -1.4441  1.3928
  112DOPC   H2Y15362  10.801  13.166   5.509 -1.5495  1.6153 -1.5728
  112DOPC   C2315363  11.241  12.603   5.489 -0.1224  0.2401 -0.2267
  112DOPC   H3R15364  11.177  12.544   5.420 -0.1901 -0.1101  0.1319
  112DOPC   H3S15365  11.274  12.533   5.569  0.8110  2.1034  1.0934
  112DOPC   C2415366  11.372  12.653   5.415  0.4347 -0.6404 -0.4557
  112DOPC   H4R15367  11.455  12.579   5.409  1.1756  0.0121  1.0897
  112DOPC   H4S15368  11.415  12.730   5.482 -0.5972 -2.4967  2.5127
  112DOPC   C2515369  11.333  12.721   5.278  0.6250  0.5810 -0.4128
  112DOPC   H5R15370  11.280  12.817   5.295  0.7963  0.4951  0.7148
  112DOPC   H5S15371  11.270  12.662   5.209  0.9973  0.7042 -0.8594
  112DOPC   C2615372  11.451  12.760   5.188 -0.1400  0.6660 -0.1439
  112DOPC   H6R15373  11.498  12.670   5.143 -0.5261 -0.9526  2.4594
  112DOPC   H6S15374  11.542  12.806   5.231  1.2315 -1.1975 -0.9036
  112DOPC   C2715375  11.412  12.851   5.074 -0.1403  0.1708 -0.1135
  112DOPC   H7R15376  11.371  12.947   5.113 -0.2720  0.8960 -1.9116
  112DOPC   H7S15377  11.336  12.805   5.008  1.6905 -0.1532 -2.0967
  112DOPC   C2815378  11.534  12.896   4.990  0.2606  0.1446 -0.2054
  112DOPC   H8R15379  11.584  12.806   4.947  0.4564 -1.3162  2.7875
  112DOPC   H8S15380  11.617  12.938   5.051 -0.4395 -0.5447  1.2782
  112DOPC   C2915381  11.485  12.988   4.878 -0.4054  1.0132 -0.5979
  112DOPC   H9R15382  11.421  13.062   4.928 -0.2911  1.5912 -1.2919
  112DOPC  C21015383  11.497  12.968   4.743  0.1847 -1.0109  0.2723
  112DOPC  H10R15384  11.463  13.046   4.673  0.1749  1.2173  2.6177
  112DOPC  C21115385  11.578  12.863   4.678  0.2845  0.7553  0.4500
  112DOPC  H11R15386  11.515  12.792   4.619 -0.8736  1.8673  0.3067
  112DOPC  H11S15387  11.637  12.799   4.748 -2.6480 -0.1926  2.2195
  112DOPC  C21215388  11.674  12.910   4.569 -0.1723 -0.3338  0.7570
  112DOPC  H12R15389  11.749  12.987   4.595  0.2731 -0.1714 -0.8955
  112DOPC  H12S15390  11.617  12.960   4.487 -0.8888  1.1056  2.0760
  112DOPC  C21315391  11.749  12.795   4.505 -0.3214  0.4351  0.1781
  112DOPC  H13R15392  11.678  12.713   4.478 -1.0041  0.1318  2.6278
  112DOPC  H13S15393  11.825  12.753   4.575  0.3889  1.6810  0.1727
  112DOPC  C21415394  11.833  12.838   4.385  0.1517  0.1601  0.3507
  112DOPC  H14R15395  11.777  12.900   4.312 -0.1996  0.7906  1.1382
  112DOPC  H14S15396  11.864  12.747   4.330  1.1109  1.2883 -1.0262
  112DOPC  C21515397  11.974  12.899   4.418  0.7601  0.5479  0.9499
  112DOPC  H15R15398  12.023  12.859   4.509  0.2985 -0.2464  0.8651
  112DOPC  H15S15399  11.961  13.008   4.431 -1.5041  0.5131 -0.5261
  112DOPC  C21615400  12.081  12.867   4.316 -0.0376  0.1495  0.1795
  112DOPC  H16R15401  12.049  12.909   4.218 -2.4570  1.3081  1.3820
  112DOPC  H16S15402  12.080  12.758   4.296  0.1571  0.3242 -0.8319
  112DOPC  C21715403  12.212  12.920   4.373  0.2688  0.0930 -0.1150
  112DOPC  H17R15404  12.254  12.856   4.453  1.1601  0.8563  0.0492
  112DOPC  H17S15405  12.213  13.024   4.412 -0.4397 -0.2402  0.8289
  112DOPC  C21815406  12.323  12.911   4.269  0.2164  0.4353 -0.3784
  112DOPC  H18R15407  12.361  12.808   4.285 -1.7228 -0.1147  1.0513
  112DOPC  H18S15408  12.401  12.987   4.291 -1.2658  1.8234  0.2469
  112DOPC  H18T15409  12.296  12.927   4.162  0.9183 -0.9458 -0.7933
  112DOPC   C3315410  10.600  13.247   5.571 -0.2212 -0.2062 -0.0878
  112DOPC   H3X15411  10.631  13.345   5.612 -1.9402  1.4921 -2.5308
  112DOPC   H3Y15412  10.513  13.214   5.631 -1.3768  1.1880 -0.9146
  112DOPC   C3415413  10.563  13.269   5.423 -0.0938 -0.3978 -0.2611
  112DOPC   H4X15414  10.642  13.328   5.373 -0.5699 -0.2044 -0.7995
  112DOPC   H4Y15415  10.473  13.334   5.426  0.5844  0.5849  2.9562
  112DOPC   C3515416  10.537  13.142   5.346 -0.7523  0.6617 -0.2095
  112DOPC   H5X15417  10.467  13.084   5.409  0.7042  0.2341  1.0910
  112DOPC   H5Y15418  10.625  13.077   5.329 -0.9204  0.4337 -0.2116
  112DOPC   C3615419  10.466  13.182   5.218  0.0711 -0.3579  0.8021
  112DOPC   H6X15420  10.371  13.224   5.259  0.4607 -0.2826  1.6610
  112DOPC   H6Y15421  10.520  13.267   5.171  0.5433 -0.0639  1.8405
  112DOPC   C3715422  10.438  13.065   5.121 -0.3362  0.1648 -0.1246
  112DOPC   H7X15423  10.528  13.026   5.068 -1.0152 -0.8491 -0.5736
  112DOPC   H7Y15424  10.381  12.996   5.187 -1.0908  2.0698  1.3022
  112DOPC   C3815425  10.348  13.093   5.002  0.2371 -0.1953  0.2324
  112DOPC   H8X15426  10.261  13.147   5.044  0.5525 -1.4550  2.6724
  112DOPC   H8Y15427  10.317  12.990   4.974  2.0747 -0.5973 -0.4721
  112DOPC   C3915428  10.408  13.169   4.893 -0.6630 -0.3542 -0.3865
  112DOPC   H9X15429  10.457  13.264   4.919 -1.4068  0.3192 -1.3699
  112DOPC  C31015430  10.407  13.127   4.768  0.1264 -0.0521 -0.5648
  112DOPC  H10X15431  10.476  13.177   4.698 -1.0597  0.6245 -1.2954
  112DOPC  C31115432  10.328  12.999   4.727 -0.1161  0.1147 -0.1455
  112DOPC  H11X15433  10.232  12.983   4.779 -1.5550  1.8257 -2.1115
  112DOPC  H11Y15434  10.398  12.913   4.733  0.5281  0.4569 -2.0223
  112DOPC  C31215435  10.275  13.005   4.585 -0.3202 -0.3522  0.0429
  112DOPC  H12X15436  10.270  12.897   4.560 -1.7898 -0.2972  0.0108
  112DOPC  H12Y15437  10.345  13.062   4.520 -1.4372  1.0743  0.0349
  112DOPC  C31315438  10.140  13.074   4.583  0.6335 -0.2516 -0.6709
  112DOPC  H13X15439  10.060  13.011   4.627  1.5285 -1.8979 -1.3363
  112DOPC  H13Y15440  10.147  13.165   4.647  0.6179 -2.2350  2.3542
  112DOPC  C31415441  10.081  13.108   4.442  0.1405 -0.2817  0.0854
  112DOPC  H14X15442  10.153  13.176   4.393  0.4928 -0.4327  0.3873
  112DOPC  H14Y15443  10.081  13.009   4.391 -0.1775 -0.1964 -0.0848
  112DOPC  C31515444   9.935  13.159   4.441  0.1071  0.3307  0.2962
  112DOPC  H15X15445   9.936  13.261   4.486 -0.6691  0.3275  0.3417
  112DOPC  H15Y15446   9.867  13.095   4.501  0.7933  0.2658  1.0301
  112DOPC  C31615447   9.881  13.177   4.296 -0.0169  0.5718  0.1551
  112DOPC  H16X15448   9.939  13.261   4.252 -0.3332  0.2964 -0.7994
  112DOPC  H16Y15449   9.905  13.081   4.247 -1.1532 -0.9078  2.3233
  112DOPC  C31715450   9.741  13.220   4.288 -0.1244 -0.6762 -0.1321
  112DOPC  H17X15451   9.679  13.157   4.355  1.9493 -0.4108  2.1886
  112DOPC  H17Y15452   9.737  13.324   4.328 -0.7302 -0.7244 -0.0573
  112DOPC  C31815453   9.680  13.221   4.143 -0.7327  0.4761  0.3760
  112DOPC  H18X15454   9.762  13.232   4.069 -0.1304 -0.7175  0.8267
  112DOPC  H18Y15455   9.628  13.123   4.129  0.4239 -0.6727  3.3160
  112DOPC  H18Z15456   9.608  13.304   4.129 -1.8946 -0.9132 -2.8315
  113DOPC     N15457  11.449   1.183   6.409  0.2582  0.3777  0.5732
  113DOPC   C1215458  11.503   1.231   6.270 -0.1088  0.4252 -0.0598
  113DOPC  H12A15459  11.514   1.144   6.207  1.0268  0.3311  0.2447
  113DOPC  H12B15460  11.604   1.268   6.268  0.5902 -1.2746  1.0347
  113DOPC   C1315461  11.476   1.292   6.510 -0.0656  0.1843  0.0145
  113DOPC  H13A15462  11.583   1.306   6.514  0.1178 -1.4209  1.9018
  113DOPC  H13B15463  11.441   1.382   6.461 -0.7807  0.9492  1.8413
  113DOPC  H13C15464  11.432   1.283   6.608  1.9967  0.0721  0.9805
  113DOPC   C1415465  11.527   1.065   6.458 -0.0879  0.1083 -0.2701
  113DOPC  H14A15466  11.633   1.083   6.461  0.1324 -1.0661 -0.3202
  113DOPC  H14B15467  11.486   1.046   6.556 -1.1247  1.6655 -0.3662
  113DOPC  H14C15468  11.516   0.982   6.389  0.0970  0.4449 -0.7062
  113DOPC   C1515469  11.304   1.148   6.401  0.0063 -0.1823  0.4995
  113DOPC  H15A15470  11.247   1.237   6.380 -1.1467 -1.6857 -4.0400
  113DOPC  H15B15471  11.269   1.090   6.486  1.1622 -2.6807 -0.6207
  113DOPC  H15C15472  11.285   1.088   6.313 -2.0391  1.5353 -0.3383
  113DOPC   C1115473  11.412   1.339   6.198  0.1098 -0.1562 -0.1085
  113DOPC  H11A15474  11.446   1.363   6.095 -2.5484  0.2985 -0.9600
  113DOPC  H11B15475  11.310   1.302   6.174 -0.1622  1.2747 -1.2881
  113DOPC     P15476  11.500   1.572   6.279 -0.1481 -0.1091  0.1485
  113DOPC   O1315477  11.630   1.526   6.338  0.6994  0.2130 -0.3952
  113DOPC   O1415478  11.425   1.680   6.351  0.7263 -0.1712 -0.5349
  113DOPC   O1215479  11.393   1.460   6.272  0.1199 -0.4285 -0.1640
  113DOPC   O1115480  11.530   1.617   6.130  0.1318 -0.3790 -0.0202
  113DOPC    C115481  11.420   1.633   6.041  0.0276 -0.3393 -0.0184
  113DOPC    HA15482  11.373   1.734   6.041  0.0697 -0.2879 -1.9342
  113DOPC    HB15483  11.333   1.571   6.069 -1.3096  0.6434 -1.7214
  113DOPC    C215484  11.469   1.599   5.897 -0.4945 -0.5356 -0.0163
  113DOPC    HS15485  11.525   1.503   5.903  0.6603 -0.0548 -2.1627
  113DOPC   O2115486  11.547   1.710   5.860 -0.4256  0.8303 -0.1652
  113DOPC   C2115487  11.650   1.689   5.774  0.6483 -0.0111 -0.2833
  113DOPC   O2215488  11.680   1.585   5.721 -0.2985  0.6521  0.2016
  113DOPC   C2215489  11.730   1.820   5.760  0.3462 -0.9267  0.3677
  113DOPC   H2R15490  11.800   1.826   5.846  0.9567 -1.3451 -0.0944
  113DOPC   H2S15491  11.667   1.911   5.775 -0.8003 -1.8514  1.4000
  113DOPC    C315492  11.344   1.592   5.801 -0.8931  0.8710 -1.4310
  113DOPC    HX15493  11.286   1.687   5.804 -2.0616  0.1492  0.2987
  113DOPC    HY15494  11.283   1.509   5.841  0.6911  0.3020 -0.0575
  113DOPC   O3115495  11.389   1.580   5.665  0.0484  0.0213  0.6510
  113DOPC   C3115496  11.411   1.457   5.616 -0.0200  0.1173 -0.9774
  113DOPC   O3215497  11.408   1.355   5.679 -0.3125 -0.0091  0.4133
  113DOPC   C3215498  11.443   1.481   5.468 -0.8771 -0.1964 -0.6544
  113DOPC   H2X15499  11.383   1.567   5.431  1.1378  1.3580 -0.5119
  113DOPC   H2Y15500  11.549   1.514   5.479 -1.0954  1.4352 -2.7492
  113DOPC   C2315501  11.807   1.818   5.628  0.3792 -0.0727  0.7898
  113DOPC   H3R15502  11.872   1.729   5.615 -0.8593 -1.1454  1.6943
  113DOPC   H3S15503  11.868   1.911   5.633  0.7264 -0.2591  0.1582
  113DOPC   C2415504  11.729   1.819   5.493  1.0351 -0.3819 -0.0505
  113DOPC   H4R15505  11.673   1.914   5.478  0.2044 -1.0172 -1.1571
  113DOPC   H4S15506  11.648   1.743   5.489  0.3473  0.4017 -1.7567
  113DOPC   C2515507  11.814   1.811   5.365 -0.2468 -0.1794  0.5554
  113DOPC   H5R15508  11.868   1.714   5.368  0.0806  0.0104  0.9827
  113DOPC   H5S15509  11.898   1.884   5.357 -1.0192  0.6514 -0.2601
  113DOPC   C2615510  11.732   1.801   5.237  0.3854  0.4919 -0.4046
  113DOPC   H6R15511  11.679   1.898   5.241 -1.3501 -0.3873 -1.2562
  113DOPC   H6S15512  11.657   1.720   5.246  0.4998  0.4159 -0.1588
  113DOPC   C2715513  11.818   1.794   5.108  1.1047  0.5252 -0.0127
  113DOPC   H7R15514  11.761   1.769   5.016  0.4359 -1.8633  0.9674
  113DOPC   H7S15515  11.893   1.716   5.136 -0.4494 -0.7170  0.8672
  113DOPC   C2815516  11.909   1.925   5.076 -0.3191  0.6313 -0.2095
  113DOPC   H8R15517  11.965   1.903   4.983 -1.0282  0.4109 -0.5945
  113DOPC   H8S15518  11.981   1.931   5.160  0.5196 -0.3520 -0.8419
  113DOPC   C2915519  11.825   2.052   5.064 -0.2100 -0.5614 -0.7466
  113DOPC   H9R15520  11.806   2.103   5.159 -1.1487 -0.8136 -0.7915
  113DOPC  C21015521  11.780   2.096   4.950 -0.3430 -0.8942 -0.4896
  113DOPC  H10R15522  11.724   2.190   4.952  1.4602  0.3204 -2.1382
  113DOPC  C21115523  11.797   2.046   4.809 -1.0717 -0.3327 -0.7180
  113DOPC  H11R15524  11.823   1.939   4.799 -0.1026 -0.0331 -1.5668
  113DOPC  H11S15525  11.875   2.114   4.767 -0.3609 -1.2629 -0.9293
  113DOPC  C21215526  11.667   2.071   4.722  0.2882 -0.2557  0.4673
  113DOPC  H12R15527  11.654   2.181   4.728 -0.2403 -0.1496 -1.7545
  113DOPC  H12S15528  11.585   2.016   4.774 -0.8404  0.4033 -0.5715
  113DOPC  C21315529  11.664   2.023   4.579 -0.2334  0.1415  0.4107
  113DOPC  H13R15530  11.764   2.014   4.533  0.4677 -0.8967  2.0376
  113DOPC  H13S15531  11.602   2.089   4.516  1.1188  0.6836 -0.3875
  113DOPC  C21415532  11.606   1.880   4.576 -0.8039  0.4855 -0.6577
  113DOPC  H14R15533  11.503   1.873   4.618 -0.2830 -0.5948  0.5161
  113DOPC  H14S15534  11.667   1.819   4.646 -1.2233 -1.4027 -1.8603
  113DOPC  C21515535  11.623   1.809   4.440  0.4226 -0.0923 -0.3730
  113DOPC  H15R15536  11.730   1.781   4.433  0.2955 -0.2319 -1.9656
  113DOPC  H15S15537  11.594   1.885   4.365  0.4438 -0.7179 -1.0323
  113DOPC  C21615538  11.539   1.687   4.422 -0.7128  0.1775  0.2696
  113DOPC  H16R15539  11.562   1.610   4.498 -0.4429 -0.1509 -0.1394
  113DOPC  H16S15540  11.556   1.646   4.320 -1.8847  0.3206 -0.0046
  113DOPC  C21715541  11.393   1.719   4.405  0.2478  0.2216 -0.1415
  113DOPC  H17R15542  11.389   1.791   4.320  0.8902 -0.4242 -0.7392
  113DOPC  H17S15543  11.342   1.766   4.491 -1.5646  0.1441 -1.1228
  113DOPC  C21815544  11.303   1.605   4.361  0.5031  0.2858  0.8211
  113DOPC  H18R15545  11.207   1.641   4.318  1.5135  0.7344 -1.1742
  113DOPC  H18S15546  11.299   1.527   4.440  1.4948 -1.9693 -1.2150
  113DOPC  H18T15547  11.337   1.539   4.278  0.8913  0.9506  0.4399
  113DOPC   C3315548  11.440   1.355   5.385 -0.3367  0.0151 -0.7681
  113DOPC   H3X15549  11.341   1.306   5.394 -0.6614  0.9469  1.7770
  113DOPC   H3Y15550  11.507   1.281   5.435  0.1629  2.2766  2.2330
  113DOPC   C3415551  11.477   1.382   5.237 -0.0768  0.2740  0.8680
  113DOPC   H4X15552  11.413   1.457   5.186 -1.7728 -0.5857  1.6464
  113DOPC   H4Y15553  11.463   1.289   5.179  1.9990  0.4879 -0.0435
  113DOPC   C3515554  11.630   1.416   5.226 -0.0992  0.1515  0.0613
  113DOPC   H5X15555  11.674   1.336   5.290 -1.7152  0.8122  2.1159
  113DOPC   H5Y15556  11.653   1.511   5.280  2.6768 -0.7937  0.7280
  113DOPC   C3615557  11.687   1.406   5.085  0.6226  0.4807  0.0850
  113DOPC   H6X15558  11.655   1.309   5.043 -1.6422  1.3675 -0.3787
  113DOPC   H6Y15559  11.650   1.488   5.020  0.0970 -0.6616 -1.1029
  113DOPC   C3715560  11.840   1.409   5.076 -1.0145  0.1700  0.4425
  113DOPC   H7X15561  11.885   1.509   5.093  1.9555 -1.0773  0.6060
  113DOPC   H7Y15562  11.883   1.335   5.147 -1.5247 -0.5354  0.0251
  113DOPC   C3815563  11.905   1.374   4.935  0.1128  0.1435  0.0203
  113DOPC   H8X15564  11.872   1.270   4.914 -1.0625  0.8497 -1.8873
  113DOPC   H8Y15565  12.014   1.390   4.941  0.2570 -1.0877  1.1760
  113DOPC   C3915566  11.839   1.457   4.828  0.0853 -0.2800  0.2252
  113DOPC   H9X15567  11.806   1.555   4.868 -0.0334 -0.1396 -0.2064
  113DOPC  C31015568  11.828   1.428   4.697  0.3102 -0.4697  0.0711
  113DOPC  H10X15569  11.770   1.500   4.637  0.7010 -0.2459 -0.0435
  113DOPC  C31115570  11.880   1.310   4.623  0.1047 -0.5897 -0.1991
  113DOPC  H11X15571  11.790   1.265   4.577  0.7597  0.5230 -2.7526
  113DOPC  H11Y15572  11.935   1.253   4.701  0.6875  0.4819  0.2029
  113DOPC  C31215573  11.983   1.335   4.509  0.2109  0.4450  0.0656
  113DOPC  H12X15574  12.077   1.386   4.539 -1.9527  3.5351  2.2439
  113DOPC  H12Y15575  11.940   1.413   4.442 -1.1593 -1.3198 -1.2305
  113DOPC  C31315576  12.007   1.206   4.435 -1.1125  0.5585  0.3005
  113DOPC  H13X15577  12.053   1.138   4.510 -0.5824  0.8993  0.2895
  113DOPC  H13Y15578  11.925   1.139   4.403  0.6411  0.0915 -3.7554
  113DOPC  C31415579  12.102   1.222   4.316 -0.0552  0.4107 -0.1816
  113DOPC  H14X15580  12.182   1.293   4.345  2.9132 -2.6951 -0.1790
  113DOPC  H14Y15581  12.163   1.130   4.302 -0.6558  0.0474 -0.4612
  113DOPC  C31515582  12.039   1.249   4.175 -0.2347  0.5532 -0.6221
  113DOPC  H15X15583  11.976   1.340   4.185 -2.0052 -0.7852  1.2545
  113DOPC  H15Y15584  11.962   1.173   4.154 -1.1633  1.4901 -0.6974
  113DOPC  C31615585  12.139   1.257   4.057 -0.6334 -0.3569 -0.0209
  113DOPC  H16X15586  12.220   1.318   4.104 -2.7170  0.2022  3.0828
  113DOPC  H16Y15587  12.176   1.154   4.042  1.6235  0.5071 -0.9304
  113DOPC  C31715588  12.075   1.317   3.927 -0.8962  0.3540 -0.3108
  113DOPC  H17X15589  12.056   1.426   3.939 -1.2637 -0.0120  3.5818
  113DOPC  H17Y15590  12.136   1.299   3.836 -1.4740 -1.8100 -0.3082
  113DOPC  C31815591  11.945   1.245   3.886  0.8550 -0.6500  0.4105
  113DOPC  H18X15592  11.956   1.135   3.896 -2.9706 -1.0336  2.2268
  113DOPC  H18Y15593  11.861   1.277   3.951  0.4114 -0.1622 -0.3868
  113DOPC  H18Z15594  11.914   1.272   3.782 -1.0571  3.0873  1.7568
  114DOPC     N15595   3.481   5.454   6.618  0.5327  0.2946 -0.1196
  114DOPC   C1215596   3.464   5.370   6.493 -0.2665  0.5635 -0.2373
  114DOPC  H12A15597   3.369   5.320   6.503  0.4766 -0.4296  3.2661
  114DOPC  H12B15598   3.537   5.290   6.502  0.8405  1.6246  0.5773
  114DOPC   C1315599   3.623   5.492   6.635 -0.1227  0.6715 -0.6223
  114DOPC  H13A15600   3.689   5.408   6.654  1.0825  1.8508  0.6663
  114DOPC  H13B15601   3.661   5.519   6.538  0.1747 -1.7333 -1.2313
  114DOPC  H13C15602   3.649   5.562   6.713  1.3358 -0.1385 -0.3466
  114DOPC   C1415603   3.439   5.376   6.740  0.0911  0.3837  0.8255
  114DOPC  H14A15604   3.338   5.340   6.726 -0.1454  1.6300 -1.0305
  114DOPC  H14B15605   3.512   5.301   6.765 -0.0861 -0.4613 -0.9918
  114DOPC  H14C15606   3.444   5.451   6.817  2.2236  2.0739 -0.8191
  114DOPC   C1515607   3.406   5.579   6.608 -0.3815 -0.5757 -0.3041
  114DOPC  H15A15608   3.412   5.652   6.688  0.2797 -0.4160 -0.4905
  114DOPC  H15B15609   3.301   5.554   6.603 -0.8211  1.0488 -0.0193
  114DOPC  H15C15610   3.429   5.633   6.518 -0.4573  0.7958  0.4623
  114DOPC   C1115611   3.488   5.434   6.362  0.1741  0.2857  0.6104
  114DOPC  H11A15612   3.460   5.350   6.295  1.9172  0.3496 -0.2488
  114DOPC  H11B15613   3.424   5.523   6.341 -1.8042 -1.1398  0.2789
  114DOPC     P15614   3.735   5.369   6.299 -0.0548 -0.0663 -0.0004
  114DOPC   O1315615   3.779   5.295   6.416  0.3536 -0.2578 -0.6169
  114DOPC   O1415616   3.848   5.436   6.229  0.4922 -0.5546  0.2732
  114DOPC   O1215617   3.620   5.471   6.333  0.1092  0.5252 -0.2843
  114DOPC   O1115618   3.666   5.264   6.204 -0.1325  0.7704  0.1428
  114DOPC    C115619   3.604   5.310   6.081  0.2423  0.5873 -0.1680
  114DOPC    HA15620   3.583   5.418   6.064  0.1225  0.2408 -2.5654
  114DOPC    HB15621   3.509   5.254   6.066  1.7578 -2.0176 -0.6517
  114DOPC    C215622   3.684   5.251   5.958 -0.3444 -0.2714 -0.3865
  114DOPC    HS15623   3.779   5.308   5.954  0.3820 -1.3593  0.5244
  114DOPC   O2115624   3.603   5.248   5.840 -1.1156 -0.2444  0.2152
  114DOPC   C2115625   3.616   5.350   5.755 -0.8217  0.4101  0.2457
  114DOPC   O2215626   3.668   5.454   5.776  0.0739 -0.2108 -0.2429
  114DOPC   C2215627   3.543   5.307   5.628 -0.2607 -0.0766  0.0088
  114DOPC   H2R15628   3.434   5.286   5.632 -0.1060 -0.8270  0.6293
  114DOPC   H2S15629   3.601   5.232   5.571 -1.0358 -0.3577 -0.4143
  114DOPC    C315630   3.717   5.104   5.994  0.0191  0.0614 -0.1007
  114DOPC    HX15631   3.620   5.050   5.993 -0.6865  1.2818 -0.9900
  114DOPC    HY15632   3.764   5.095   6.094  0.3357  0.5723 -0.2024
  114DOPC   O3115633   3.796   5.050   5.884 -0.4824 -0.1067  0.9708
  114DOPC   C3115634   3.922   5.076   5.883 -0.7729 -0.0459  0.0683
  114DOPC   O3215635   3.983   5.140   5.971 -0.5961  0.0023 -0.1529
  114DOPC   C3215636   3.991   5.015   5.757 -0.0152  0.2655 -0.3296
  114DOPC   H2X15637   4.034   4.921   5.799  0.7164  0.0373 -1.5247
  114DOPC   H2Y15638   3.916   4.986   5.681  0.2023 -0.7127 -0.1824
  114DOPC   C2315639   3.541   5.435   5.539 -0.0283  0.3713 -0.1238
  114DOPC   H3R15640   3.641   5.485   5.536 -0.1959  0.7052 -0.1536
  114DOPC   H3S15641   3.468   5.507   5.582 -0.9551  0.0890 -1.1851
  114DOPC   C2415642   3.490   5.408   5.393 -0.5687 -0.2705  0.1583
  114DOPC   H4R15643   3.392   5.355   5.395 -0.1173 -1.1972 -1.1565
  114DOPC   H4S15644   3.574   5.357   5.341  1.8762  2.8582  0.7168
  114DOPC   C2515645   3.475   5.543   5.329 -0.0447 -0.4856  0.0653
  114DOPC   H5R15646   3.574   5.587   5.303 -0.1675 -1.0623 -1.4674
  114DOPC   H5S15647   3.425   5.617   5.394  2.6530  0.9086  0.7142
  114DOPC   C2615648   3.385   5.545   5.199 -0.9130  0.5744 -0.6600
  114DOPC   H6R15649   3.283   5.514   5.231 -0.8263  3.1654  2.5341
  114DOPC   H6S15650   3.423   5.466   5.130 -0.9490 -0.1507  0.1293
  114DOPC   C2715651   3.395   5.671   5.108  0.0703  0.1951  0.0996
  114DOPC   H7R15652   3.366   5.648   5.004 -4.0035  2.8075  0.4111
  114DOPC   H7S15653   3.499   5.708   5.112 -0.8290  2.8462  1.8638
  114DOPC   C2815654   3.305   5.791   5.153  0.2677 -0.3070  0.3575
  114DOPC   H8R15655   3.345   5.874   5.091  0.0673 -0.6755 -0.2836
  114DOPC   H8S15656   3.326   5.821   5.258  0.1258 -2.6303  1.1234
  114DOPC   C2915657   3.156   5.757   5.138 -0.9347  0.2531 -0.3801
  114DOPC   H9R15658   3.118   5.690   5.217 -1.3351 -1.2106 -1.7609
  114DOPC  C21015659   3.070   5.824   5.062  0.3767  0.3538  0.3524
  114DOPC  H10R15660   2.968   5.784   5.063 -0.0593  1.1190 -3.2786
  114DOPC  C21115661   3.116   5.932   4.965 -0.4658  0.5621  0.2902
  114DOPC  H11R15662   3.206   5.984   5.005  0.8116 -0.0592 -1.6456
  114DOPC  H11S15663   3.038   6.010   4.951 -2.1189 -1.3891 -2.0423
  114DOPC  C21215664   3.158   5.867   4.835 -0.0950  0.1199 -0.1823
  114DOPC  H12R15665   3.068   5.824   4.786 -0.1889  2.1507 -1.9045
  114DOPC  H12S15666   3.232   5.788   4.861 -1.0133 -0.8908 -0.5937
  114DOPC  C21315667   3.215   5.957   4.722  0.3047 -0.0232  0.0838
  114DOPC  H13R15668   3.283   6.029   4.773  2.2062 -1.3319 -0.4915
  114DOPC  H13S15669   3.130   6.012   4.675 -0.6337 -1.1496  0.4255
  114DOPC  C21415670   3.306   5.894   4.614  0.9149 -0.1433  0.4376
  114DOPC  H14R15671   3.253   5.808   4.568 -1.1638  2.1118 -1.6256
  114DOPC  H14S15672   3.403   5.854   4.651  1.4508 -0.1158 -0.9023
  114DOPC  C21515673   3.341   5.982   4.488 -0.0406 -0.1223 -0.1558
  114DOPC  H15R15674   3.403   6.069   4.517  0.4986 -0.8658  1.0377
  114DOPC  H15S15675   3.245   6.019   4.445  1.9027  2.7472 -2.3657
  114DOPC  C21615676   3.404   5.898   4.370  0.0243 -0.3030  0.4683
  114DOPC  H16R15677   3.403   5.961   4.278 -0.7291 -0.2950  0.4831
  114DOPC  H16S15678   3.353   5.799   4.366 -0.6667 -0.0084  1.6767
  114DOPC  C21715679   3.548   5.872   4.377 -0.3965  0.1743 -0.3597
  114DOPC  H17R15680   3.598   5.946   4.442 -0.5848  0.4308 -0.5075
  114DOPC  H17S15681   3.576   5.884   4.270 -1.9876 -1.4461 -1.0154
  114DOPC  C21815682   3.581   5.731   4.435 -0.0390 -0.2354 -0.1111
  114DOPC  H18R15683   3.547   5.730   4.540  0.2425  0.0576 -0.0168
  114DOPC  H18S15684   3.692   5.720   4.437  0.0405  0.6218  0.4040
  114DOPC  H18T15685   3.539   5.654   4.367  0.9893 -0.9103 -0.0070
  114DOPC   C3315686   4.104   5.109   5.706 -0.4214 -0.4938 -0.3990
  114DOPC   H3X15687   4.171   5.069   5.626 -0.2373  3.0349 -2.1872
  114DOPC   H3Y15688   4.171   5.130   5.792 -2.1925 -0.9029  1.1388
  114DOPC   C3415689   4.067   5.245   5.656 -0.2417 -0.1909  0.0102
  114DOPC   H4X15690   4.150   5.317   5.641  0.1167 -0.2541  1.5349
  114DOPC   H4Y15691   4.004   5.300   5.729 -0.9410  2.0889 -2.1700
  114DOPC   C3515692   3.974   5.251   5.532  0.7420  1.0796 -0.3563
  114DOPC   H5X15693   3.872   5.219   5.559  1.1031  0.6822  0.5638
  114DOPC   H5Y15694   4.001   5.178   5.452 -0.2192  1.5898 -1.1730
  114DOPC   C3615695   3.966   5.388   5.475  0.0593  0.4616 -0.1297
  114DOPC   H6X15696   3.911   5.463   5.536 -0.1490 -0.1350  0.4255
  114DOPC   H6Y15697   4.068   5.429   5.456 -0.3456  0.6716 -2.0206
  114DOPC   C3715698   3.902   5.390   5.339  1.2429  0.3185  0.2873
  114DOPC   H7X15699   3.977   5.338   5.274  0.2831 -0.5253 -0.1671
  114DOPC   H7Y15700   3.819   5.317   5.340  2.8865 -1.9717 -3.7949
  114DOPC   C3815701   3.875   5.528   5.285 -0.0002  0.3787  0.4285
  114DOPC   H8X15702   3.969   5.584   5.264  0.1047 -0.3713 -1.2565
  114DOPC   H8Y15703   3.819   5.592   5.357  0.7587  0.5791  0.8490
  114DOPC   C3915704   3.788   5.515   5.163  0.7115 -0.1568  0.3999
  114DOPC   H9X15705   3.712   5.435   5.167  0.1164  0.4492  1.6371
  114DOPC  C31015706   3.791   5.597   5.060 -0.2582 -0.2764 -0.5932
  114DOPC  H10X15707   3.727   5.578   4.972  1.2858 -0.0815 -1.7995
  114DOPC  C31115708   3.862   5.727   5.068  0.1848  0.3300 -0.2487
  114DOPC  H11X15709   3.930   5.713   4.981 -1.9393 -2.1383 -1.6587
  114DOPC  H11Y15710   3.928   5.741   5.157 -1.6058 -0.8678  1.3317
  114DOPC  C31215711   3.774   5.852   5.067 -0.5851 -0.1694 -0.6084
  114DOPC  H12X15712   3.850   5.931   5.083  0.0559 -1.0189  0.6997
  114DOPC  H12Y15713   3.708   5.845   5.155  0.4241 -1.6797  0.0870
  114DOPC  C31315714   3.697   5.872   4.936  0.8191 -0.3351 -0.3109
  114DOPC  H13X15715   3.775   5.870   4.858  2.0324 -1.6333  0.8687
  114DOPC  H13Y15716   3.630   5.786   4.916 -0.2752 -0.1752  2.2762
  114DOPC  C31415717   3.636   6.018   4.931  0.0069  0.3986  0.1922
  114DOPC  H14X15718   3.544   6.026   4.993  0.6979  0.9272  1.1549
  114DOPC  H14Y15719   3.719   6.080   4.971  0.7960 -0.7243  0.3499
  114DOPC  C31515720   3.613   6.064   4.783  0.1125 -0.5897 -0.0315
  114DOPC  H15X15721   3.551   5.986   4.733 -1.2351 -0.8726  1.9521
  114DOPC  H15Y15722   3.701   6.088   4.720 -1.0723  0.4995 -1.3158
  114DOPC  C31615723   3.540   6.193   4.784  0.1479  0.0949  0.3125
  114DOPC  H16X15724   3.510   6.214   4.679 -0.8447 -1.5617  0.2266
  114DOPC  H16Y15725   3.453   6.202   4.853  0.3287  1.2981  0.4045
  114DOPC  C31715726   3.635   6.314   4.810  0.0895  0.4828 -0.0529
  114DOPC  H17X15727   3.633   6.340   4.918  1.1214 -0.1904  0.1506
  114DOPC  H17Y15728   3.735   6.270   4.790 -0.8806 -1.1227 -1.6108
  114DOPC  C31815729   3.616   6.435   4.719 -0.2680  0.3796  0.3116
  114DOPC  H18X15730   3.674   6.516   4.767 -2.0104  1.7347  0.2139
  114DOPC  H18Y15731   3.670   6.420   4.623 -1.5488 -0.8438 -0.2604
  114DOPC  H18Z15732   3.513   6.472   4.705  0.2556  1.2882 -1.3840
  115DOPC     N15733   1.489   9.138   6.615  0.2217 -0.2300  0.1421
  115DOPC   C1215734   1.585   9.047   6.540 -0.8887 -0.0495  0.3529
  115DOPC  H12A15735   1.530   8.960   6.507 -0.1489 -1.2805  2.2109
  115DOPC  H12B15736   1.667   9.012   6.601  0.0610 -1.4710 -1.6598
  115DOPC   C1315737   1.567   9.245   6.680 -0.9066  0.6012  0.0840
  115DOPC  H13A15738   1.640   9.282   6.609 -1.5392 -1.8019 -1.9859
  115DOPC  H13B15739   1.502   9.324   6.715 -1.0855  0.0791  0.9616
  115DOPC  H13C15740   1.620   9.200   6.762 -1.8989 -1.3702 -0.2653
  115DOPC   C1415741   1.420   9.066   6.726  0.6357  0.3737  0.4739
  115DOPC  H14A15742   1.356   9.138   6.775 -1.2948 -0.0907 -1.2492
  115DOPC  H14B15743   1.367   8.983   6.682  1.5258  0.3502 -0.6080
  115DOPC  H14C15744   1.492   9.015   6.788  2.0022 -2.3957 -3.0370
  115DOPC   C1515745   1.382   9.193   6.522  0.1847  0.1388 -0.0385
  115DOPC  H15A15746   1.335   9.111   6.469 -0.7312 -0.7584  2.0221
  115DOPC  H15B15747   1.430   9.266   6.459 -0.9728  0.6981 -0.3140
  115DOPC  H15C15748   1.304   9.242   6.580  1.4497  1.9161  0.2224
  115DOPC   C1115749   1.648   9.114   6.414  0.0467 -0.0031 -0.6115
  115DOPC  H11A15750   1.681   9.027   6.354  0.6136 -1.0910  1.1918
  115DOPC  H11B15751   1.573   9.169   6.353  1.5719  0.0125 -2.5754
  115DOPC     P15752   1.895   9.169   6.488  0.2445 -0.4469 -0.1873
  115DOPC   O1315753   1.876   9.076   6.604 -0.3126 -0.5173  0.8732
  115DOPC   O1415754   1.968   9.296   6.500 -0.4201 -0.7217  0.6616
  115DOPC   O1215755   1.747   9.214   6.445  0.1616  0.7804  0.0958
  115DOPC   O1115756   1.952   9.084   6.362  0.2047 -0.5612 -0.4828
  115DOPC    C115757   1.926   9.125   6.230 -0.6768  0.2090 -0.1356
  115DOPC    HA15758   1.981   9.220   6.213  2.5437 -1.6067 -0.7706
  115DOPC    HB15759   1.818   9.134   6.208 -0.7503  0.4373  0.2980
  115DOPC    C215760   1.989   9.033   6.123 -0.4769 -0.1318 -0.5286
  115DOPC    HS15761   2.008   9.095   6.033 -2.6845  1.0498 -0.2636
  115DOPC   O2115762   1.916   8.918   6.095 -0.2424 -0.2100 -0.1738
  115DOPC   C2115763   1.816   8.942   6.022 -0.1168 -0.5219  0.0737
  115DOPC   O2215764   1.794   9.048   5.960  0.2249  0.2153 -0.0398
  115DOPC   C2215765   1.739   8.808   5.992  0.4666  0.0946 -0.5476
  115DOPC   H2R15766   1.674   8.785   6.079 -2.7280  0.3711 -2.6741
  115DOPC   H2S15767   1.818   8.731   5.984  1.6223  1.0882  0.8563
  115DOPC    C315768   2.134   8.988   6.177 -0.0168 -0.4726 -0.0846
  115DOPC    HX15769   2.109   8.928   6.267 -1.1669 -0.7074 -0.5347
  115DOPC    HY15770   2.187   9.079   6.213 -1.3129  0.1620  0.3034
  115DOPC   O3115771   2.207   8.921   6.068  0.1331  0.4862 -0.3166
  115DOPC   C3115772   2.189   8.786   6.071 -0.1355 -0.2284 -0.4699
  115DOPC   O3215773   2.129   8.723   6.156  0.3848  0.4680 -0.0200
  115DOPC   C3215774   2.273   8.723   5.959  0.2034  0.4901 -0.3878
  115DOPC   H2X15775   2.352   8.792   5.924  2.8784 -1.0242  2.1707
  115DOPC   H2Y15776   2.320   8.629   5.997 -0.5414  0.6461  0.9598
  115DOPC   C2315777   1.649   8.803   5.862  0.6388  0.4827 -1.2521
  115DOPC   H3R15778   1.597   8.901   5.865  0.3628  0.3834  2.6002
  115DOPC   H3S15779   1.586   8.712   5.872 -0.1921  1.1824  0.4121
  115DOPC   C2415780   1.727   8.779   5.732 -0.2345 -1.1226  0.3424
  115DOPC   H4R15781   1.785   8.683   5.728  1.9245 -0.0833  3.1173
  115DOPC   H4S15782   1.806   8.857   5.735 -0.2944 -1.0619  0.3119
  115DOPC   C2515783   1.641   8.792   5.606  0.4807  0.3884 -0.3343
  115DOPC   H5R15784   1.612   8.899   5.599  0.8675  0.4525 -1.0096
  115DOPC   H5S15785   1.547   8.735   5.622  0.5110  0.5249  0.3578
  115DOPC   C2615786   1.724   8.759   5.485  0.6564  0.5796  0.0542
  115DOPC   H6R15787   1.748   8.651   5.484 -0.9198  0.1946 -0.7592
  115DOPC   H6S15788   1.819   8.815   5.499 -0.5281  2.0156  3.4018
  115DOPC   C2715789   1.650   8.777   5.359 -0.0025 -0.7788 -0.6813
  115DOPC   H7R15790   1.637   8.886   5.341  0.9952 -0.5813 -0.2879
  115DOPC   H7S15791   1.553   8.723   5.361 -0.4782  0.0180 -1.3649
  115DOPC   C2815792   1.729   8.715   5.239 -0.2815 -0.9990  0.1655
  115DOPC   H8R15793   1.666   8.685   5.152  3.2340 -1.4392 -2.4531
  115DOPC   H8S15794   1.779   8.620   5.269 -0.9824 -1.3665  0.1988
  115DOPC   C2915795   1.834   8.811   5.185 -0.4283 -0.9039  0.1084
  115DOPC   H9R15796   1.903   8.856   5.257 -1.7792  2.0183 -0.2681
  115DOPC  C21015797   1.848   8.857   5.059  0.7370  0.5699 -0.0824
  115DOPC  H10R15798   1.935   8.915   5.024  1.0300 -0.0421 -0.3887
  115DOPC  C21115799   1.742   8.817   4.958 -0.2273  0.4808 -0.1160
  115DOPC  H11R15800   1.642   8.853   4.992  0.4113  0.4760  1.9510
  115DOPC  H11S15801   1.730   8.707   4.946 -1.1679  0.5592 -0.0144
  115DOPC  C21215802   1.763   8.874   4.814 -0.5196  0.4904  0.3269
  115DOPC  H12R15803   1.802   8.978   4.815 -2.0068  1.0807  1.3188
  115DOPC  H12S15804   1.665   8.874   4.760 -0.8801  2.5611  0.8600
  115DOPC  C21315805   1.868   8.795   4.734  0.4354  0.0424  0.4488
  115DOPC  H13R15806   1.847   8.687   4.728 -1.3316  0.2639  1.8467
  115DOPC  H13S15807   1.963   8.798   4.792  1.0412  1.3281 -0.5611
  115DOPC  C21415808   1.896   8.860   4.596  0.3532  0.5884 -0.0608
  115DOPC  H14R15809   2.005   8.879   4.590  0.8870 -1.0890  2.5891
  115DOPC  H14S15810   1.849   8.960   4.584 -0.6987  0.0404 -0.7582
  115DOPC  C21515811   1.842   8.783   4.468 -0.3320  0.5331 -0.1417
  115DOPC  H15R15812   1.793   8.856   4.400 -1.7510  1.6618  2.0027
  115DOPC  H15S15813   1.771   8.705   4.503  0.5360  0.3532  1.2941
  115DOPC  C21615814   1.950   8.720   4.369  0.4555  0.4624 -0.0020
  115DOPC  H16R15815   1.993   8.804   4.310 -1.3561  0.6710 -1.1169
  115DOPC  H16S15816   1.892   8.658   4.298 -0.8636 -0.5901  1.8995
  115DOPC  C21715817   2.056   8.643   4.446 -0.0011 -0.1031 -0.2011
  115DOPC  H17R15818   2.017   8.599   4.541 -1.1156  0.2679 -0.4739
  115DOPC  H17S15819   2.130   8.716   4.485  2.5512 -2.3267 -0.5680
  115DOPC  C21815820   2.118   8.544   4.352  0.5952  0.3715  0.0764
  115DOPC  H18R15821   2.192   8.473   4.396  0.9202  1.0598  0.6519
  115DOPC  H18S15822   2.174   8.601   4.275  2.1002  2.3308  2.4709
  115DOPC  H18T15823   2.052   8.481   4.288  2.1072  0.8387 -2.0622
  115DOPC   C3315824   2.189   8.669   5.833 -0.6932 -0.5692 -0.4071
  115DOPC   H3X15825   2.117   8.595   5.875 -0.4760  0.8586  2.7422
  115DOPC   H3Y15826   2.263   8.628   5.761 -0.1921 -0.8765  0.2738
  115DOPC   C3415827   2.098   8.766   5.759  0.4731  0.0660 -0.1057
  115DOPC   H4X15828   2.017   8.808   5.822  0.7687 -1.0559  1.0776
  115DOPC   H4Y15829   2.056   8.701   5.680 -0.6850 -0.1491  0.6666
  115DOPC   C3515830   2.178   8.878   5.690 -0.5352 -0.1355 -0.3678
  115DOPC   H5X15831   2.268   8.841   5.638  0.0213 -1.1416  1.2394
  115DOPC   H5Y15832   2.213   8.948   5.769 -0.8352 -0.2525 -0.1291
  115DOPC   C3615833   2.095   8.956   5.590 -0.1556  0.3840 -0.3539
  115DOPC   H6X15834   2.051   8.876   5.527 -1.5949  1.5698 -0.9061
  115DOPC   H6Y15835   2.013   9.018   5.633 -0.1584 -0.5039  1.0079
  115DOPC   C3715836   2.178   9.066   5.507 -0.0881 -0.2628 -0.1015
  115DOPC   H7X15837   2.207   9.140   5.585 -1.1041 -0.0189  0.0628
  115DOPC   H7Y15838   2.262   9.014   5.456 -0.9604 -1.2568 -0.5772
  115DOPC   C3815839   2.095   9.128   5.394 -0.8896 -0.0982  0.0779
  115DOPC   H8X15840   2.024   9.192   5.451 -0.4632  0.9277 -0.5177
  115DOPC   H8Y15841   2.057   9.044   5.331  0.7726 -1.1146  0.3939
  115DOPC   C3915842   2.172   9.223   5.309 -0.4282 -0.2412  0.7429
  115DOPC   H9X15843   2.186   9.322   5.355  3.3059 -0.0511 -0.5147
  115DOPC  C31015844   2.208   9.205   5.174  0.6666 -0.2634  0.3493
  115DOPC  H10X15845   2.267   9.285   5.127 -0.9349  2.8119  3.1024
  115DOPC  C31115846   2.188   9.089   5.085  0.8956  0.1033 -0.3740
  115DOPC  H11X15847   2.095   9.104   5.026  0.5480  1.0408  0.3857
  115DOPC  H11Y15848   2.159   8.998   5.142 -2.2031  2.2891  1.8039
  115DOPC  C31215849   2.304   9.067   4.985 -0.2864  0.1194 -0.0107
  115DOPC  H12X15850   2.289   8.967   4.940  3.0463  0.1957 -1.6329
  115DOPC  H12Y15851   2.390   9.051   5.054 -0.2992 -0.6154 -0.1624
  115DOPC  C31315852   2.335   9.167   4.879 -0.7386  0.2978  1.0498
  115DOPC  H13X15853   2.246   9.169   4.812 -0.4182 -0.5405  0.5858
  115DOPC  H13Y15854   2.355   9.271   4.911  2.2208 -0.1252  0.8446
  115DOPC  C31415855   2.450   9.121   4.787 -0.3348 -1.1319  0.1758
  115DOPC  H14X15856   2.457   9.203   4.712 -0.3947  0.9963  2.3600
  115DOPC  H14Y15857   2.545   9.116   4.844  0.1423 -1.3493 -0.6399
  115DOPC  C31515858   2.427   8.991   4.709  0.0041  0.2684  0.6828
  115DOPC  H15X15859   2.332   9.000   4.653  0.0616 -0.8943  0.3662
  115DOPC  H15Y15860   2.420   8.900   4.773  0.7641 -0.0757  0.2891
  115DOPC  C31615861   2.544   8.960   4.618  0.2733 -0.5430 -0.7241
  115DOPC  H16X15862   2.580   9.053   4.570  1.3457 -0.0537  0.9592
  115DOPC  H16Y15863   2.623   8.920   4.684  0.9809  0.3785 -0.9866
  115DOPC  C31715864   2.511   8.858   4.512  0.4194 -0.0799  0.2881
  115DOPC  H17X15865   2.608   8.844   4.459  1.3811  0.8489  1.7030
  115DOPC  H17Y15866   2.475   8.767   4.564  3.1167 -2.5597 -1.8103
  115DOPC  C31815867   2.394   8.914   4.421  0.6358 -0.5214  0.0207
  115DOPC  H18X15868   2.380   8.854   4.329  1.0142  0.7586 -0.8982
  115DOPC  H18Y15869   2.302   8.902   4.482  0.9619 -1.4732  0.3439
  115DOPC  H18Z15870   2.395   9.021   4.394  0.2872 -0.7784 -1.0709
  116DOPC     N15871   1.512   1.820   6.102 -0.4188  0.0250  0.0522
  116DOPC   C1215872   1.468   1.798   5.956 -0.2470  0.4927 -0.2273
  116DOPC  H12A15873   1.535   1.722   5.918  0.5503  1.3628 -0.6098
  116DOPC  H12B15874   1.492   1.887   5.900  0.9115  1.1900  1.3229
  116DOPC   C1315875   1.451   1.709   6.186  0.2501 -0.4393  0.0057
  116DOPC  H13A15876   1.344   1.720   6.182  0.3554  0.4532 -0.8546
  116DOPC  H13B15877   1.468   1.611   6.142 -2.2827 -1.4367  1.0640
  116DOPC  H13C15878   1.485   1.713   6.288 -0.7594 -2.5047  0.4797
  116DOPC   C1415879   1.463   1.949   6.148 -0.8039 -0.1749 -1.0445
  116DOPC  H14A15880   1.509   2.031   6.095 -0.4297 -0.2328 -0.8139
  116DOPC  H14B15881   1.359   1.965   6.126 -0.9123  2.3951  0.8979
  116DOPC  H14C15882   1.483   1.961   6.254  4.3888  1.9843 -1.9632
  116DOPC   C1515883   1.666   1.821   6.114 -0.3086 -0.2182 -0.3698
  116DOPC  H15A15884   1.703   1.850   6.211  0.9838 -1.0855 -0.5724
  116DOPC  H15B15885   1.713   1.887   6.041  2.0396 -2.4544 -1.0387
  116DOPC  H15C15886   1.685   1.718   6.088  0.3975  0.0834 -1.0979
  116DOPC   C1115887   1.327   1.765   5.925  0.5837  0.3271 -0.6042
  116DOPC  H11A15888   1.317   1.748   5.815 -0.2784 -2.1884 -0.1960
  116DOPC  H11B15889   1.288   1.670   5.965 -0.1180  0.5311 -0.7827
  116DOPC     P15890   1.201   2.003   5.870  0.8259  0.1476  0.4275
  116DOPC   O1315891   1.321   2.089   5.841  0.4050 -0.0104  0.5146
  116DOPC   O1415892   1.093   2.069   5.949 -0.4325  0.4549 -0.1612
  116DOPC   O1215893   1.249   1.875   5.966  0.2353 -0.3096  0.4080
  116DOPC   O1115894   1.141   1.935   5.737 -0.0203 -0.3589 -0.5354
  116DOPC    C115895   1.019   1.871   5.758  0.4914 -0.0299  0.2328
  116DOPC    HA15896   0.940   1.945   5.787  1.3438  1.6142 -1.3973
  116DOPC    HB15897   1.029   1.792   5.835 -2.1352 -3.5393 -2.6318
  116DOPC    C215898   0.960   1.802   5.631  0.3419  0.1249  0.0516
  116DOPC    HS15899   0.880   1.732   5.664 -2.7145  3.1779 -0.4010
  116DOPC   O2115900   1.066   1.735   5.554  0.2328  0.0010  0.2532
  116DOPC   C2115901   1.128   1.642   5.621  0.2425 -0.2524 -0.1469
  116DOPC   O2215902   1.074   1.587   5.717  0.3001 -0.1872  0.1606
  116DOPC   C2215903   1.258   1.598   5.565  0.2095  1.1779 -0.2872
  116DOPC   H2R15904   1.284   1.509   5.627  1.3621  0.0578 -2.2707
  116DOPC   H2S15905   1.328   1.684   5.565  0.3068  1.1324  1.3734
  116DOPC    C315906   0.890   1.906   5.536  0.3381  0.0609  0.2444
  116DOPC    HX15907   0.948   2.001   5.536 -0.8551  0.8447  2.0654
  116DOPC    HY15908   0.795   1.944   5.579  1.3302  1.4518  1.2655
  116DOPC   O3115909   0.859   1.847   5.405  0.6523  0.3220 -0.7817
  116DOPC   C3115910   0.919   1.901   5.305 -0.6115 -0.1978  0.4505
  116DOPC   O3215911   1.007   1.986   5.315  0.6099 -0.2623 -0.1848
  116DOPC   C3215912   0.888   1.825   5.174 -0.0314  0.2426 -0.5053
  116DOPC   H2X15913   0.976   1.837   5.107 -0.0103  0.2217 -0.4814
  116DOPC   H2Y15914   0.884   1.718   5.202 -0.0054  0.0739 -1.1212
  116DOPC   C2315915   1.242   1.550   5.415  0.6906  0.3177  0.8114
  116DOPC   H3R15916   1.155   1.486   5.390  0.5551  1.3550 -1.6192
  116DOPC   H3S15917   1.324   1.476   5.409  0.7346  0.2830  1.6525
  116DOPC   C2415918   1.272   1.665   5.313 -0.4995  0.0124 -0.0622
  116DOPC   H4R15919   1.374   1.707   5.324 -1.3897  1.9139  1.3160
  116DOPC   H4S15920   1.198   1.745   5.334  0.0285  0.7917 -1.0636
  116DOPC   C2515921   1.238   1.625   5.168 -0.1683  0.0125  0.4480
  116DOPC   H5R15922   1.128   1.609   5.161 -0.5044  1.2367  2.2194
  116DOPC   H5S15923   1.293   1.532   5.140  0.9442  1.0140 -0.8543
  116DOPC   C2615924   1.268   1.731   5.067  0.3105  0.0216  0.0309
  116DOPC   H6R15925   1.378   1.740   5.053  0.3840 -2.2771 -1.3443
  116DOPC   H6S15926   1.223   1.826   5.105 -1.3304  0.5691 -2.9545
  116DOPC   C2715927   1.201   1.704   4.928  0.1037  0.3670  0.1625
  116DOPC   H7R15928   1.090   1.708   4.940  0.0832 -0.1880  0.1530
  116DOPC   H7S15929   1.232   1.602   4.899 -1.2808 -0.5714  1.7687
  116DOPC   C2815930   1.247   1.801   4.821 -0.4117  0.6389  0.3732
  116DOPC   H8R15931   1.228   1.754   4.722 -1.4680  2.0914 -0.1386
  116DOPC   H8S15932   1.358   1.811   4.821 -0.4308  1.0249  1.6019
  116DOPC   C2915933   1.181   1.939   4.832 -0.2691 -0.0016  0.4341
  116DOPC   H9R15934   1.207   1.984   4.929 -2.6785  0.8824  0.7388
  116DOPC  C21015935   1.114   2.013   4.745  0.4624 -0.3843  1.0685
  116DOPC  H10R15936   1.063   2.104   4.779  2.7586  0.7821  1.6126
  116DOPC  C21115937   1.083   1.981   4.604  0.9352  0.0852  0.1471
  116DOPC  H11R15938   1.146   1.901   4.560 -0.8152 -1.1362 -0.2239
  116DOPC  H11S15939   1.084   2.068   4.536  1.3094 -1.0935 -1.4028
  116DOPC  C21215940   0.935   1.929   4.577 -0.3766  0.5809 -0.3115
  116DOPC  H12R15941   0.922   1.919   4.467 -0.6072  1.4315 -0.3659
  116DOPC  H12S15942   0.854   1.995   4.613 -0.0482  0.0814  1.4459
  116DOPC  C21315943   0.915   1.796   4.644  0.3607  0.3864  0.8954
  116DOPC  H13R15944   0.915   1.812   4.754  2.8306 -0.8826  1.1350
  116DOPC  H13S15945   1.005   1.739   4.615  0.7546  2.5840 -2.8667
  116DOPC  C21415946   0.783   1.739   4.592 -0.6736  0.0200  0.2238
  116DOPC  H14R15947   0.785   1.715   4.483 -1.2409  2.4468 -0.3913
  116DOPC  H14S15948   0.699   1.812   4.603 -0.5598  0.3807 -1.0971
  116DOPC  C21515949   0.748   1.611   4.671 -1.2248 -0.3961  0.6851
  116DOPC  H15R15950   0.748   1.650   4.775  0.1158 -1.1469  0.9910
  116DOPC  H15S15951   0.838   1.546   4.659 -1.3404 -0.6917  1.3724
  116DOPC  C21615952   0.616   1.541   4.644 -0.1294  0.7257 -0.0254
  116DOPC  H16R15953   0.545   1.620   4.677 -0.8399 -0.0057  0.2332
  116DOPC  H16S15954   0.610   1.455   4.714 -1.7537  0.8052 -0.0327
  116DOPC  C21715955   0.579   1.485   4.504  0.2544  0.4872 -0.4221
  116DOPC  H17R15956   0.651   1.412   4.462 -0.4929 -0.2077 -0.5110
  116DOPC  H17S15957   0.583   1.572   4.435  1.2302 -0.0374 -1.0519
  116DOPC  C21815958   0.439   1.423   4.505 -0.0315 -0.2127  0.0952
  116DOPC  H18R15959   0.425   1.346   4.584  1.7819 -0.5570  0.1163
  116DOPC  H18S15960   0.425   1.376   4.405  1.4033 -0.7789  0.1335
  116DOPC  H18T15961   0.376   1.514   4.514  1.4068  1.1500 -2.6518
  116DOPC   C3315962   0.763   1.868   5.095 -0.6734 -0.6531  0.4272
  116DOPC   H3X15963   0.672   1.838   5.152 -1.4565 -0.2882 -0.6083
  116DOPC   H3Y15964   0.761   1.805   5.003 -0.8082 -0.8402  0.5555
  116DOPC   C3415965   0.771   2.014   5.058 -0.3915 -0.1604 -0.8761
  116DOPC   H4X15966   0.870   2.038   5.013  0.2381 -0.9307  0.0469
  116DOPC   H4Y15967   0.761   2.065   5.156  0.5562 -0.8634 -0.3983
  116DOPC   C3515968   0.661   2.063   4.964  0.5821  0.1091 -0.3038
  116DOPC   H5X15969   0.559   2.059   5.007 -0.2265  0.3473 -2.1192
  116DOPC   H5Y15970   0.661   2.010   4.866 -0.2013 -0.4640 -0.0048
  116DOPC   C3615971   0.688   2.207   4.939  0.2928 -0.7542 -0.1829
  116DOPC   H6X15972   0.677   2.263   5.035 -0.7827 -2.5205  0.7844
  116DOPC   H6Y15973   0.790   2.213   4.898  1.1424  1.0822  1.9409
  116DOPC   C3715974   0.589   2.266   4.835  0.2154 -0.2811  0.2543
  116DOPC   H7X15975   0.581   2.209   4.740  0.1758 -2.0035  1.2405
  116DOPC   H7Y15976   0.493   2.245   4.886  1.8788 -2.4770  2.8071
  116DOPC   C3815977   0.608   2.416   4.822  0.1230 -0.8510 -0.5366
  116DOPC   H8X15978   0.704   2.440   4.772  0.3268  1.3573  0.8068
  116DOPC   H8Y15979   0.630   2.451   4.925 -0.8820  1.2575 -0.9686
  116DOPC   C3915980   0.490   2.490   4.769  0.2940 -0.0694 -0.1253
  116DOPC   H9X15981   0.398   2.454   4.816  1.0053 -1.8545 -0.0394
  116DOPC  C31015982   0.472   2.567   4.660  0.6734  0.4453  0.4175
  116DOPC  H10X15983   0.368   2.599   4.640  0.2098 -0.7419  0.8260
  116DOPC  C31115984   0.580   2.608   4.566 -0.0624 -0.6707 -0.1915
  116DOPC  H11X15985   0.681   2.582   4.606 -1.3380 -2.0126  2.4007
  116DOPC  H11Y15986   0.585   2.719   4.554  1.5902 -0.7351 -0.3874
  116DOPC  C31215987   0.580   2.546   4.425  0.5539 -0.4045  0.1861
  116DOPC  H12X15988   0.476   2.539   4.386  0.7594 -2.3816 -0.1061
  116DOPC  H12Y15989   0.622   2.444   4.433  2.2858  0.2131 -0.5908
  116DOPC  C31315990   0.667   2.615   4.323  0.4295 -0.4121 -0.4045
  116DOPC  H13X15991   0.636   2.721   4.311  2.1755  0.3975  1.5191
  116DOPC  H13Y15992   0.771   2.620   4.364  0.4224  0.3220 -0.4482
  116DOPC  C31415993   0.677   2.528   4.195  0.1262  0.1618 -0.2451
  116DOPC  H14X15994   0.705   2.424   4.221 -2.3650 -0.4274  0.3521
  116DOPC  H14Y15995   0.577   2.539   4.147  0.2728 -0.2444 -0.6538
  116DOPC  C31515996   0.771   2.586   4.088  0.0315  0.5614  0.0321
  116DOPC  H15X15997   0.871   2.551   4.120 -0.7951 -0.6179  1.4216
  116DOPC  H15Y15998   0.773   2.697   4.097 -2.0911  0.5006  2.6478
  116DOPC  C31615999   0.749   2.538   3.945  0.3685 -0.8889 -0.1802
  116DOPC  H16X16000   0.659   2.584   3.900  1.2583  0.3326 -0.7652
  116DOPC  H16Y16001   0.834   2.572   3.882  0.7678  1.8990  1.6736
  116DOPC  C31716002   0.738   2.386   3.941  0.6022  0.2122 -0.7975
  116DOPC  H17X16003   0.814   2.335   4.004  0.3713 -1.4973 -1.8414
  116DOPC  H17Y16004   0.642   2.358   3.991  2.0746  1.0015  2.8017
  116DOPC  C31816005   0.746   2.333   3.800  0.0861  0.2538  0.4696
  116DOPC  H18X16006   0.843   2.373   3.764  0.5436 -0.7593  0.5413
  116DOPC  H18Y16007   0.745   2.223   3.787 -2.2819  0.3911 -1.2395
  116DOPC  H18Z16008   0.670   2.382   3.735  0.3512  1.4585  1.0416
  117DOPC     N16009  12.104   4.736   6.100 -0.2932 -0.3808 -0.0683
  117DOPC   C1216010  12.119   4.649   5.974 -0.0086 -0.0353 -0.2264
  117DOPC  H12A16011  12.214   4.676   5.931 -0.8500  0.7681 -1.6476
  117DOPC  H12B16012  12.054   4.689   5.898  0.6852  4.4579  1.2819
  117DOPC   C1316013  11.972   4.725   6.169 -0.3936 -0.4197  0.4303
  117DOPC  H13A16014  11.977   4.787   6.257 -3.2078  1.8305 -0.8332
  117DOPC  H13B16015  11.899   4.764   6.100  1.4889 -1.0774 -2.0820
  117DOPC  H13C16016  11.937   4.624   6.185  0.0930 -0.6458  0.0800
  117DOPC   C1416017  12.117   4.881   6.076  0.4514 -0.3438  0.0586
  117DOPC  H14A16018  12.048   4.916   6.001  0.3166  1.8777  1.1356
  117DOPC  H14B16019  12.103   4.936   6.168 -2.7128 -0.4655 -0.2355
  117DOPC  H14C16020  12.213   4.915   6.041 -0.3748 -0.7816 -2.8556
  117DOPC   C1516021  12.208   4.696   6.203  0.3971 -0.0301  0.2368
  117DOPC  H15A16022  12.218   4.766   6.284  2.8211  0.6731 -0.5517
  117DOPC  H15B16023  12.307   4.689   6.158 -0.3433  1.3644 -1.7146
  117DOPC  H15C16024  12.178   4.604   6.251 -1.0783  1.1752  1.6841
  117DOPC   C1116025  12.126   4.491   5.994  0.2933 -0.3269 -0.4189
  117DOPC  H11A16026  12.155   4.471   5.889 -1.6673  3.6864 -1.9220
  117DOPC  H11B16027  12.202   4.457   6.068 -0.6417 -0.7433  0.3711
  117DOPC     P16028  11.901   4.407   5.900 -0.1444  0.3109  0.2826
  117DOPC   O1316029  11.906   4.517   5.801 -0.2403 -0.3546 -0.1575
  117DOPC   O1416030  11.765   4.361   5.944 -0.0973 -0.3483  0.1966
  117DOPC   O1216031  11.995   4.442   6.022 -0.0556  0.4360  0.3569
  117DOPC   O1116032  11.988   4.277   5.858 -0.1422 -0.4676 -0.5060
  117DOPC    C116033  11.926   4.177   5.779  0.5364  1.2471  0.3592
  117DOPC    HA16034  11.817   4.192   5.764  0.6132  0.7575 -0.7480
  117DOPC    HB16035  11.950   4.082   5.832 -1.7714  0.7177  0.5951
  117DOPC    C216036  11.983   4.173   5.633  0.1724  0.2350  0.1623
  117DOPC    HS16037  11.947   4.241   5.553  0.8484 -0.9470 -1.1814
  117DOPC   O2116038  11.962   4.036   5.586  0.1216 -0.8477 -0.4547
  117DOPC   C2116039  11.836   4.015   5.542 -0.4189  0.0813  0.1356
  117DOPC   O2216040  11.746   4.090   5.559 -0.9937 -0.6844  0.0324
  117DOPC   C2216041  11.828   3.882   5.477  0.7372  0.3265  0.2535
  117DOPC   H2R16042  11.758   3.823   5.540  0.8060  1.6316  1.6101
  117DOPC   H2S16043  11.931   3.842   5.487  0.4742 -1.1467 -2.1557
  117DOPC    C316044  12.134   4.201   5.629  0.1828  0.1421 -0.1678
  117DOPC    HX16045  12.191   4.133   5.695 -2.1906 -0.0502  1.8403
  117DOPC    HY16046  12.153   4.306   5.662  2.3806  0.4680 -2.1966
  117DOPC   O3116047  12.176   4.190   5.495  0.3299 -0.2982 -0.1197
  117DOPC   C3116048  12.306   4.201   5.476 -0.4665 -0.3411  0.4217
  117DOPC   O3216049  12.386   4.225   5.565  0.3193  0.1359 -0.7932
  117DOPC   C3216050  12.341   4.161   5.333  0.2909 -0.2177 -0.0340
  117DOPC   H2X16051  12.422   4.217   5.282  0.4139 -1.1562 -0.8985
  117DOPC   H2Y16052  12.364   4.053   5.324 -0.6280 -0.3348 -1.1487
  117DOPC   C2316053  11.778   3.876   5.334  0.3671  0.1332 -0.5225
  117DOPC   H3R16054  11.859   3.905   5.265  0.3794 -0.3106 -0.6990
  117DOPC   H3S16055  11.703   3.955   5.312  1.1463  1.1042  0.2297
  117DOPC   C2416056  11.720   3.742   5.305  0.1108 -0.8229 -0.6245
  117DOPC   H4R16057  11.650   3.717   5.388 -0.8638  1.2511 -0.7826
  117DOPC   H4S16058  11.799   3.664   5.297 -0.7993 -2.1849  2.1224
  117DOPC   C2516059  11.645   3.738   5.169  0.1304 -0.3805  0.0556
  117DOPC   H5R16060  11.713   3.752   5.082  0.0250 -0.5075 -0.0485
  117DOPC   H5S16061  11.578   3.827   5.169  2.0854  1.1619  0.6360
  117DOPC   C2616062  11.558   3.613   5.138  0.1987 -0.2441  0.6959
  117DOPC   H6R16063  11.490   3.598   5.225 -0.1039 -3.4098  0.0146
  117DOPC   H6S16064  11.616   3.519   5.127  0.5617  0.2444 -2.0549
  117DOPC   C2716065  11.468   3.640   5.021 -0.1493 -0.2245  0.7533
  117DOPC   H7R16066  11.525   3.688   4.939  0.5939 -0.7112  0.9736
  117DOPC   H7S16067  11.393   3.709   5.063  0.3990 -0.5903  2.4174
  117DOPC   C2816068  11.389   3.516   4.969 -0.7956 -0.1752 -0.3468
  117DOPC   H8R16069  11.470   3.445   4.944  1.5424  1.8763  1.0093
  117DOPC   H8S16070  11.326   3.539   4.880 -2.7437 -1.7307  0.5430
  117DOPC   C2916071  11.294   3.463   5.077 -0.4675 -1.3309  0.7305
  117DOPC   H9R16072  11.256   3.533   5.152  1.8176  0.1784  0.5677
  117DOPC  C21016073  11.231   3.346   5.057  0.1384 -0.1520 -0.4426
  117DOPC  H10R16074  11.167   3.306   5.137 -0.7376  0.0656 -1.0226
  117DOPC  C21116075  11.266   3.239   4.954  0.2611 -0.5804 -0.0856
  117DOPC  H11R16076  11.227   3.137   4.974  1.7812 -1.0287  0.7573
  117DOPC  H11S16077  11.376   3.231   4.946  0.1314 -1.9832 -0.7643
  117DOPC  C21216078  11.220   3.275   4.808  0.1983 -0.3783 -0.0817
  117DOPC  H12R16079  11.291   3.353   4.774  0.4364 -1.0909 -1.2589
  117DOPC  H12S16080  11.115   3.310   4.809 -1.2228 -4.0250 -2.4936
  117DOPC  C21316081  11.233   3.152   4.721 -0.2614 -0.3043 -0.7255
  117DOPC  H13R16082  11.197   3.180   4.620 -2.7967  1.0020  0.4405
  117DOPC  H13S16083  11.166   3.071   4.756  0.4917 -0.8785 -0.5849
  117DOPC  C21416084  11.383   3.124   4.704  0.0033  0.2666 -0.0692
  117DOPC  H14R16085  11.424   3.115   4.806 -0.0164 -1.6602 -0.2011
  117DOPC  H14S16086  11.417   3.216   4.651 -1.2944  1.1192  0.5225
  117DOPC  C21516087  11.427   3.001   4.624  0.8716 -0.0960 -0.2055
  117DOPC  H15R16088  11.532   3.023   4.596  0.5328  1.8178 -0.0994
  117DOPC  H15S16089  11.370   2.986   4.530 -1.2172 -1.2921  1.1447
  117DOPC  C21616090  11.419   2.869   4.699  0.0890  0.0996  0.4534
  117DOPC  H16R16091  11.314   2.856   4.734  0.5450  0.8382  2.1951
  117DOPC  H16S16092  11.489   2.873   4.785  0.3561  0.1352  0.2347
  117DOPC  C21716093  11.455   2.745   4.613 -0.3238 -0.0245 -0.9200
  117DOPC  H17R16094  11.557   2.766   4.575  0.6592 -0.2264  1.4465
  117DOPC  H17S16095  11.381   2.747   4.530 -0.4741 -1.3523 -0.8441
  117DOPC  C21816096  11.460   2.608   4.675  0.0305 -0.3536  0.4012
  117DOPC  H18R16097  11.360   2.562   4.696 -0.1332 -1.1734 -1.7768
  117DOPC  H18S16098  11.526   2.610   4.763  0.3129  1.5137  0.1787
  117DOPC  H18T16099  11.499   2.544   4.593  0.6364  2.0853 -1.3313
  117DOPC   C3316100  12.219   4.191   5.244 -0.9789  0.7799 -0.2451
  117DOPC   H3X16101  12.178   4.292   5.263  0.6460  1.5431 -0.5700
  117DOPC   H3Y16102  12.143   4.111   5.246  0.3185 -0.4738  1.4477
  117DOPC   C3416103  12.267   4.203   5.096 -0.3522  0.4746  0.0660
  117DOPC   H4X16104  12.332   4.292   5.080  1.3010 -1.0255 -2.3664
  117DOPC   H4Y16105  12.171   4.208   5.040  0.2342 -1.0501 -1.1405
  117DOPC   C3516106  12.330   4.080   5.043 -0.3892 -0.0566 -0.3540
  117DOPC   H5X16107  12.275   3.992   5.082 -1.2261  0.6293  0.0545
  117DOPC   H5Y16108  12.434   4.083   5.081 -0.8428  0.6490  0.9070
  117DOPC   C3616109  12.336   4.066   4.889 -0.2397  0.3788  0.1441
  117DOPC   H6X16110  12.232   4.089   4.856 -0.8014 -0.1456  1.4719
  117DOPC   H6Y16111  12.401   4.147   4.849 -0.7253  1.2559  1.0661
  117DOPC   C3716112  12.372   3.930   4.833 -0.0455  0.1758 -0.5540
  117DOPC   H7X16113  12.477   3.909   4.862 -0.3195 -3.0816 -1.4852
  117DOPC   H7Y16114  12.305   3.867   4.894  1.4567 -2.0122 -1.0386
  117DOPC   C3816115  12.365   3.932   4.686  0.1737 -0.1020 -0.1517
  117DOPC   H8X16116  12.460   3.965   4.637 -1.2027  2.4406 -1.2945
  117DOPC   H8Y16117  12.284   3.993   4.641  1.1789  0.7385 -0.8822
  117DOPC   C3916118  12.353   3.782   4.656 -0.4378 -0.3747 -0.3975
  117DOPC   H9X16119  12.433   3.725   4.705 -0.2221  0.0128 -0.2881
  117DOPC  C31016120  12.252   3.724   4.591  0.0275  0.0633 -0.9827
  117DOPC  H10X16121  12.258   3.614   4.594  0.6149  0.0948  2.3062
  117DOPC  C31116122  12.128   3.797   4.538 -0.2794  0.6951 -0.3587
  117DOPC  H11X16123  12.086   3.741   4.452  0.5360 -2.5304  1.1876
  117DOPC  H11Y16124  12.153   3.900   4.506 -0.6518  0.2645 -2.1422
  117DOPC  C31216125  12.011   3.788   4.643  0.6245 -0.0179  0.4648
  117DOPC  H12X16126  11.931   3.857   4.607  0.5670 -0.2917  0.0638
  117DOPC  H12Y16127  12.039   3.828   4.743 -1.3401  0.5500  0.8379
  117DOPC  C31316128  11.966   3.643   4.659  0.6236  0.4067 -0.8354
  117DOPC  H13X16129  11.955   3.600   4.557  1.0633  0.2855 -0.8348
  117DOPC  H13Y16130  12.056   3.593   4.700  0.6700 -0.2513 -1.7063
  117DOPC  C31416131  11.844   3.620   4.754  0.6498  1.0605  0.2376
  117DOPC  H14X16132  11.871   3.637   4.860  1.0710 -1.9644  0.6909
  117DOPC  H14Y16133  11.767   3.698   4.734 -2.2117 -1.4175  0.9969
  117DOPC  C31516134  11.760   3.495   4.735  0.4002 -0.2716 -0.3325
  117DOPC  H15X16135  11.715   3.479   4.635 -1.4616 -1.0470  0.5839
  117DOPC  H15Y16136  11.678   3.490   4.811  0.3230  0.2171 -0.3824
  117DOPC  C31616137  11.849   3.376   4.761 -0.0807 -0.1600  0.8319
  117DOPC  H16X16138  11.928   3.374   4.683  1.3827  3.1076  2.0750
  117DOPC  H16Y16139  11.896   3.389   4.861  1.8075  4.0609 -0.4236
  117DOPC  C31716140  11.786   3.242   4.748  0.4819 -0.5011  0.4419
  117DOPC  H17X16141  11.686   3.244   4.796  0.0289 -3.0996 -0.2470
  117DOPC  H17Y16142  11.761   3.225   4.641  1.1698  2.6327 -0.3230
  117DOPC  C31816143  11.863   3.128   4.815  0.6610 -0.3917  0.2395
  117DOPC  H18X16144  11.971   3.135   4.790  0.9118 -0.9177  1.1507
  117DOPC  H18Y16145  11.866   3.145   4.924  1.4572 -2.0741  0.5136
  117DOPC  H18Z16146  11.825   3.031   4.777 -0.7060 -0.4465  1.6397
  118DOPC     N16147   5.665   3.268   6.565  0.7518 -0.2061 -0.7956
  118DOPC   C1216148   5.712   3.321   6.425  0.1396 -0.4787 -0.1434
  118DOPC  H12A16149   5.818   3.316   6.407  0.0947 -0.8194 -0.3260
  118DOPC  H12B16150   5.691   3.427   6.430  0.2065 -0.5142  0.9992
  118DOPC   C1316151   5.724   3.349   6.683  0.4959  0.1567 -0.0613
  118DOPC  H13A16152   5.830   3.335   6.698 -0.1871 -2.3160  3.6727
  118DOPC  H13B16153   5.697   3.453   6.671 -0.6384  0.0103  1.0035
  118DOPC  H13C16154   5.674   3.321   6.775 -2.1255  0.6893 -1.2284
  118DOPC   C1416155   5.702   3.127   6.574  0.2506  0.0403  0.0176
  118DOPC  H14A16156   5.807   3.114   6.553  0.3368  0.2029  0.3380
  118DOPC  H14B16157   5.683   3.089   6.674  0.9592  0.6823  0.4098
  118DOPC  H14C16158   5.644   3.061   6.511 -0.1845 -1.3523  1.7687
  118DOPC   C1516159   5.513   3.278   6.578  0.4898  0.5082 -0.4913
  118DOPC  H15A16160   5.478   3.379   6.563 -1.4559  0.1517  1.1137
  118DOPC  H15B16161   5.493   3.245   6.679  1.4197 -0.5071 -0.6240
  118DOPC  H15C16162   5.460   3.219   6.505 -1.6149  0.6049  0.8682
  118DOPC   C1116163   5.641   3.272   6.293  0.4740 -0.0765 -0.3850
  118DOPC  H11A16164   5.531   3.285   6.303  0.2223 -1.8059 -0.5784
  118DOPC  H11B16165   5.678   3.338   6.212 -1.1513  0.3307 -0.8499
  118DOPC     P16166   5.596   3.015   6.223  0.0116 -0.1009  0.1466
  118DOPC   O1316167   5.448   3.040   6.229 -0.3748  0.2051  0.3866
  118DOPC   O1416168   5.650   2.899   6.300 -0.0212  0.1959 -0.3708
  118DOPC   O1216169   5.683   3.136   6.266  0.3251 -0.5548 -0.5411
  118DOPC   O1116170   5.637   3.002   6.067  0.7633 -0.0978  0.1611
  118DOPC    C116171   5.723   2.904   6.006  0.4200 -0.1713 -0.2154
  118DOPC    HA16172   5.658   2.815   6.000  1.3604 -0.8220 -1.2399
  118DOPC    HB16173   5.810   2.881   6.072  0.2501 -0.5488 -0.1241
  118DOPC    C216174   5.767   2.933   5.860  0.0041 -0.2306 -0.7821
  118DOPC    HS16175   5.826   3.027   5.856  0.4858 -0.4337  1.0575
  118DOPC   O2116176   5.650   2.956   5.784 -0.0395  0.4872 -0.2264
  118DOPC   C2116177   5.665   3.010   5.666  0.4963 -0.0485 -0.2363
  118DOPC   O2216178   5.753   3.083   5.628 -0.4450  0.0069  0.4966
  118DOPC   C2216179   5.546   2.983   5.572 -0.0113  0.6853  0.0438
  118DOPC   H2R16180   5.510   3.080   5.531 -0.3065 -0.0492 -1.4794
  118DOPC   H2S16181   5.476   2.947   5.650 -0.7163  5.2342  1.8469
  118DOPC    C316182   5.839   2.811   5.805  0.4763  0.0806  0.8386
  118DOPC    HX16183   5.762   2.732   5.815 -1.4861  1.3972 -2.2764
  118DOPC    HY16184   5.922   2.787   5.875  0.9834 -0.7864 -0.0349
  118DOPC   O3116185   5.877   2.816   5.663 -0.5099  0.0709 -0.0832
  118DOPC   C3116186   6.002   2.853   5.643  0.0654  0.0060 -0.3470
  118DOPC   O3216187   6.087   2.868   5.730  0.4363  0.2013 -0.1937
  118DOPC   C3216188   6.015   2.869   5.493 -0.5112 -0.2207 -0.5808
  118DOPC   H2X16189   5.998   2.770   5.446 -1.7856  0.2837 -1.2284
  118DOPC   H2Y16190   5.928   2.925   5.452 -1.0761 -0.8862 -0.3127
  118DOPC   C2316191   5.585   2.895   5.448  0.0688  0.9100 -0.2858
  118DOPC   H3R16192   5.498   2.839   5.408  0.9739 -0.6921 -0.0892
  118DOPC   H3S16193   5.668   2.829   5.482 -0.9577 -0.1127  0.3250
  118DOPC   C2416194   5.637   2.973   5.332 -0.2397 -0.0899 -0.1251
  118DOPC   H4R16195   5.710   3.043   5.378 -2.8668  1.1341  2.5260
  118DOPC   H4S16196   5.562   3.040   5.287 -1.7545 -1.3483  0.4232
  118DOPC   C2516197   5.702   2.890   5.214 -0.5090  0.3003  0.5104
  118DOPC   H5R16198   5.627   2.824   5.166 -0.2023  1.6812 -2.0563
  118DOPC   H5S16199   5.768   2.817   5.265  0.6418  1.5654  0.8957
  118DOPC   C2616200   5.750   2.979   5.102  0.3984 -0.1950  0.1500
  118DOPC   H6R16201   5.836   3.025   5.155  0.4186  1.2388 -1.0621
  118DOPC   H6S16202   5.679   3.062   5.083  1.5993  0.6085 -0.9726
  118DOPC   C2716203   5.808   2.907   4.981 -0.3149  0.1570 -0.3585
  118DOPC   H7R16204   5.891   2.841   5.015 -0.6259  0.8245  1.8496
  118DOPC   H7S16205   5.848   2.984   4.912 -0.0499 -0.7976 -1.3075
  118DOPC   C2816206   5.701   2.826   4.901  0.1732 -0.7094  0.1164
  118DOPC   H8R16207   5.620   2.891   4.862  1.3735  0.1383 -1.0495
  118DOPC   H8S16208   5.651   2.762   4.976  0.4137 -0.3787  0.5643
  118DOPC   C2916209   5.779   2.744   4.806 -0.4285 -0.7580  0.0987
  118DOPC   H9R16210   5.828   2.801   4.726 -0.3132  2.1222  2.0600
  118DOPC  C21016211   5.801   2.614   4.805  0.0565  0.2684 -0.7631
  118DOPC  H10R16212   5.882   2.583   4.737  0.6465  0.8524 -0.3367
  118DOPC  C21116213   5.747   2.511   4.900 -0.2047 -0.8297 -0.1752
  118DOPC  H11R16214   5.776   2.409   4.866  0.9338 -0.2644 -0.9879
  118DOPC  H11S16215   5.637   2.511   4.914 -0.0776 -0.7751  0.9153
  118DOPC  C21216216   5.798   2.523   5.049 -0.0566  0.2589  0.2567
  118DOPC  H12R16217   5.743   2.464   5.126 -0.8630 -0.7969 -1.0679
  118DOPC  H12S16218   5.771   2.626   5.082 -1.4374 -0.0860  0.2876
  118DOPC  C21316219   5.952   2.509   5.054 -0.2947  0.6709  0.0978
  118DOPC  H13R16220   5.993   2.587   4.986 -1.1601  0.4683 -0.6764
  118DOPC  H13S16221   5.983   2.409   5.017 -2.7166 -0.1754  0.1721
  118DOPC  C21416222   6.022   2.538   5.190 -0.1122  0.5407 -0.5875
  118DOPC  H14R16223   5.980   2.473   5.270  2.0873 -1.4516 -0.9472
  118DOPC  H14S16224   5.992   2.641   5.218  0.2111  0.0802  1.7099
  118DOPC  C21516225   6.174   2.522   5.164 -0.4853 -0.5130  0.5494
  118DOPC  H15R16226   6.198   2.601   5.089 -0.2558  0.3047  1.4752
  118DOPC  H15S16227   6.199   2.420   5.128  0.4693 -1.9260  4.6849
  118DOPC  C21616228   6.257   2.548   5.287  0.4498 -0.3033 -0.0143
  118DOPC  H16R16229   6.228   2.465   5.355  1.7595 -2.7696 -2.2805
  118DOPC  H16S16230   6.216   2.644   5.326 -1.6647 -0.2247 -2.1691
  118DOPC  C21716231   6.405   2.551   5.268 -0.2587 -0.3281 -0.3464
  118DOPC  H17R16232   6.448   2.564   5.369  0.0288  2.2160 -0.7394
  118DOPC  H17S16233   6.451   2.627   5.201  2.3288 -1.5346 -0.0375
  118DOPC  C21816234   6.456   2.420   5.202  0.0133 -0.8297 -0.3288
  118DOPC  H18R16235   6.567   2.412   5.210  0.1901  1.5453  0.2512
  118DOPC  H18S16236   6.430   2.426   5.094  1.6386  0.9441 -0.6754
  118DOPC  H18T16237   6.412   2.324   5.236  2.3699 -3.2838 -3.5095
  118DOPC   C3316238   6.145   2.931   5.442  0.0717 -0.7954  0.3235
  118DOPC   H3X16239   6.231   2.868   5.476  2.3622  2.2273  0.5197
  118DOPC   H3Y16240   6.162   3.028   5.493  2.2070 -1.6306  1.3142
  118DOPC   C3416241   6.138   2.940   5.294  0.6909  0.0899 -0.8058
  118DOPC   H4X16242   6.047   2.999   5.270  0.6161  0.5975  0.6251
  118DOPC   H4Y16243   6.113   2.840   5.253  0.9623 -1.5200  2.6013
  118DOPC   C3516244   6.269   2.995   5.232  0.0329 -0.5748  0.4601
  118DOPC   H5X16245   6.348   2.922   5.259  0.0351 -0.1717  1.5936
  118DOPC   H5Y16246   6.292   3.086   5.291  0.7808  0.0485 -0.7569
  118DOPC   C3616247   6.247   3.033   5.089 -0.1716 -0.2361 -0.4571
  118DOPC   H6X16248   6.181   2.968   5.028 -1.3736  1.2844 -0.8384
  118DOPC   H6Y16249   6.193   3.130   5.091 -0.8272 -0.5928  0.9954
  118DOPC   C3716250   6.383   3.059   5.022 -0.1405 -0.0626 -0.1717
  118DOPC   H7X16251   6.413   3.158   5.062  0.1099  0.3194 -1.2665
  118DOPC   H7Y16252   6.460   2.985   5.054 -0.1686  0.2862  0.7091
  118DOPC   C3816253   6.391   3.063   4.866  0.3373  0.5046 -0.0233
  118DOPC   H8X16254   6.312   3.138   4.841 -0.6999 -0.0142  1.5738
  118DOPC   H8Y16255   6.347   2.969   4.827 -0.8450  0.8602  0.4102
  118DOPC   C3916256   6.519   3.109   4.805 -0.3945 -0.0078  0.9828
  118DOPC   H9X16257   6.523   3.209   4.759  1.2990 -1.0619 -1.3290
  118DOPC  C31016258   6.631   3.035   4.793  0.2575 -0.1741  0.2846
  118DOPC  H10X16259   6.725   3.080   4.757 -0.2486 -0.0236 -0.9019
  118DOPC  C31116260   6.634   2.893   4.849 -0.4053  0.5720  0.1538
  118DOPC  H11X16261   6.662   2.842   4.754  0.3448  0.0969  0.6189
  118DOPC  H11Y16262   6.536   2.854   4.882 -0.5638  0.5226 -0.3640
  118DOPC  C31216263   6.735   2.873   4.964  0.1582 -0.1711 -0.5107
  118DOPC  H12X16264   6.700   2.933   5.051 -2.6221 -0.6253 -1.2114
  118DOPC  H12Y16265   6.831   2.922   4.938  0.7716  0.0145  1.8689
  118DOPC  C31316266   6.754   2.736   5.013  0.5813 -0.5681  0.1812
  118DOPC  H13X16267   6.810   2.744   5.108 -0.4216  1.0389  0.6691
  118DOPC  H13Y16268   6.651   2.704   5.039 -0.5604 -2.0524 -4.8712
  118DOPC  C31416269   6.797   2.641   4.900  0.1189  0.3074  0.3186
  118DOPC  H14X16270   6.718   2.622   4.824  0.7344  0.1120 -0.2871
  118DOPC  H14Y16271   6.867   2.693   4.831 -1.5955  1.0351 -0.9295
  118DOPC  C31516272   6.854   2.507   4.946 -0.4872  0.5114  0.3702
  118DOPC  H15X16273   6.779   2.478   5.024 -2.8597  0.4428 -1.7943
  118DOPC  H15Y16274   6.952   2.527   4.994 -0.8018  0.7628  0.9233
  118DOPC  C31616275   6.858   2.398   4.833 -0.0131  0.1350 -0.9053
  118DOPC  H16X16276   6.894   2.296   4.859 -3.1393 -0.6724  0.6899
  118DOPC  H16Y16277   6.762   2.389   4.779  0.8970 -0.3253 -2.5357
  118DOPC  C31716278   6.951   2.426   4.721 -0.8230  0.5178  0.8157
  118DOPC  H17X16279   6.906   2.509   4.662  0.4849 -0.0988 -1.1512
  118DOPC  H17Y16280   7.050   2.468   4.750  0.5472  0.2844 -2.9844
  118DOPC  C31816281   6.970   2.312   4.627 -0.1720 -0.3234 -0.2006
  118DOPC  H18X16282   7.057   2.249   4.654 -0.2774 -1.1065 -1.6074
  118DOPC  H18Y16283   6.878   2.249   4.622 -0.3578 -0.0411 -0.3414
  118DOPC  H18Z16284   6.990   2.336   4.521  0.2870  0.9694  0.1566
  119DOPC     N16285   4.282  10.912   6.582  0.7427 -0.7170 -0.7026
  119DOPC   C1216286   4.407  10.885   6.504  0.0397  0.2836  0.3210
  119DOPC  H12A16287   4.391  10.833   6.411  0.8082  1.1097 -0.2861
  119DOPC  H12B16288   4.479  10.830   6.562  0.4884 -0.2688 -0.7252
  119DOPC   C1316289   4.207  10.789   6.611 -0.7415  0.0536 -0.0729
  119DOPC  H13A16290   4.122  10.811   6.674  0.8887  2.8716  1.3159
  119DOPC  H13B16291   4.179  10.752   6.513  1.6249 -1.7224 -0.1747
  119DOPC  H13C16292   4.257  10.716   6.673 -2.6260 -2.0501 -0.8497
  119DOPC   C1416293   4.190  11.009   6.513  0.3976 -0.3693 -0.3323
  119DOPC  H14A16294   4.248  11.057   6.436  2.7942 -1.7060  0.5533
  119DOPC  H14B16295   4.113  10.955   6.459  0.8036 -1.1706 -0.1185
  119DOPC  H14C16296   4.151  11.085   6.579  1.7661 -0.9430  1.1910
  119DOPC   C1516297   4.334  10.986   6.704  0.6971 -0.1583  0.2492
  119DOPC  H15A16298   4.401  10.924   6.763 -0.7911 -2.3143 -0.2241
  119DOPC  H15B16299   4.262  11.016   6.778  1.5168  1.7650  0.3167
  119DOPC  H15C16300   4.386  11.077   6.677  1.9892 -1.1712 -0.8889
  119DOPC   C1116301   4.488  11.004   6.443 -1.4270 -0.1511  0.0175
  119DOPC  H11A16302   4.502  11.084   6.518 -1.7277  0.6576 -0.7652
  119DOPC  H11B16303   4.590  10.975   6.411 -0.9881  1.0692  0.2615
  119DOPC     P16304   4.486  11.160   6.237  0.1922 -0.2211 -0.0059
  119DOPC   O1316305   4.510  11.288   6.311 -0.0028  0.9930 -0.3918
  119DOPC   O1416306   4.410  11.169   6.110  0.1215 -0.2698 -0.2739
  119DOPC   O1216307   4.420  11.057   6.334  1.0698  0.0096 -0.2840
  119DOPC   O1116308   4.633  11.104   6.200  0.3320  0.0560 -0.1610
  119DOPC    C116309   4.659  11.017   6.088 -0.5863  0.4363  0.2162
  119DOPC    HA16310   4.597  11.033   5.996  0.5286 -4.0622 -1.5804
  119DOPC    HB16311   4.649  10.913   6.124  0.7923  0.7364  1.5369
  119DOPC    C216312   4.804  11.031   6.038 -0.0526 -0.2954  0.0121
  119DOPC    HS16313   4.867  11.006   6.126  0.6460  1.1339 -0.0609
  119DOPC   O2116314   4.832  11.171   6.008  0.1083 -0.1444 -0.8462
  119DOPC   C2116315   4.956  11.212   6.021  0.0483 -0.0666 -0.0822
  119DOPC   O2216316   5.048  11.147   6.073  0.4070  0.7716 -0.1650
  119DOPC   C2216317   4.969  11.350   5.968  0.4294 -0.5517 -0.2572
  119DOPC   H2R16318   5.041  11.412   6.025  0.1591  0.1612 -0.6704
  119DOPC   H2S16319   4.883  11.419   5.982  1.6114  0.6613  1.5530
  119DOPC    C316320   4.827  10.942   5.915 -0.1263  0.1065 -0.0463
  119DOPC    HX16321   4.786  10.840   5.932 -1.6824  0.7819  0.5327
  119DOPC    HY16322   4.937  10.940   5.902 -0.1802  0.4484 -0.5764
  119DOPC   O3116323   4.773  11.009   5.802 -0.4515 -0.4413 -0.1450
  119DOPC   C3116324   4.687  10.939   5.735 -0.4583 -0.6850 -0.4189
  119DOPC   O3216325   4.647  10.827   5.760 -0.1335 -0.6820 -0.4017
  119DOPC   C3216326   4.664  11.010   5.601 -0.3176 -0.1592  0.4247
  119DOPC   H2X16327   4.588  11.089   5.617  0.8965  1.2774 -0.6525
  119DOPC   H2Y16328   4.758  11.048   5.556 -1.6131  1.6388 -0.8513
  119DOPC   C2316329   5.025  11.359   5.821  0.1243  0.0502 -0.9356
  119DOPC   H3R16330   5.121  11.302   5.826  0.1837  0.1429 -1.0099
  119DOPC   H3S16331   5.051  11.467   5.823  0.1163  0.1039  2.1367
  119DOPC   C2416332   4.925  11.321   5.717 -0.3754 -0.2009  0.3052
  119DOPC   H4R16333   4.839  11.389   5.729 -0.3449 -0.0606 -0.2439
  119DOPC   H4S16334   4.891  11.216   5.733 -0.9380  0.2330  2.3284
  119DOPC   C2516335   4.979  11.326   5.570  0.4988 -0.3301 -0.3221
  119DOPC   H5R16336   5.007  11.432   5.549  1.0670 -0.7168 -1.6505
  119DOPC   H5S16337   4.891  11.300   5.507 -0.2817  1.2530  0.0449
  119DOPC   C2616338   5.104  11.235   5.547 -0.3509 -0.0818  0.1318
  119DOPC   H6R16339   5.193  11.282   5.593  0.4111  0.0325 -1.3821
  119DOPC   H6S16340   5.127  11.237   5.438 -0.2993 -0.5766  0.1323
  119DOPC   C2716341   5.088  11.091   5.578 -0.6129  0.0681 -0.5651
  119DOPC   H7R16342   5.007  11.047   5.516 -0.9127 -0.6467  0.3042
  119DOPC   H7S16343   5.070  11.074   5.687 -0.9949 -2.3955 -0.9430
  119DOPC   C2816344   5.206  11.002   5.545  0.1972  0.7027 -0.4925
  119DOPC   H8R16345   5.191  10.904   5.595 -1.0748  0.5001 -1.2248
  119DOPC   H8S16346   5.301  11.032   5.596 -0.1566 -1.8099  1.8970
  119DOPC   C2916347   5.225  10.983   5.392 -0.1342  0.3367  0.3191
  119DOPC   H9R16348   5.149  10.925   5.337  0.4996  0.3233 -0.5716
  119DOPC  C21016349   5.329  11.030   5.316 -0.0698 -0.3002 -0.6155
  119DOPC  H10R16350   5.338  11.008   5.209  1.8868 -0.1402 -0.5233
  119DOPC  C21116351   5.450  11.115   5.355  0.2273 -0.1422  0.4242
  119DOPC  H11R16352   5.536  11.045   5.363 -0.6989 -1.4740 -0.8041
  119DOPC  H11S16353   5.433  11.162   5.455 -0.0312 -0.8486  0.7180
  119DOPC  C21216354   5.467  11.235   5.265  0.7967  0.8016 -0.3835
  119DOPC  H12R16355   5.484  11.206   5.159  0.8967 -1.8383  0.3026
  119DOPC  H12S16356   5.568  11.277   5.289  0.4550  0.1121  2.5851
  119DOPC  C21316357   5.346  11.335   5.267 -0.1457 -0.4270 -0.1594
  119DOPC  H13R16358   5.338  11.377   5.370  0.2216 -0.3814 -0.1468
  119DOPC  H13S16359   5.256  11.276   5.238 -0.6440 -0.0243  0.5379
  119DOPC  C21416360   5.369  11.461   5.172  0.0053 -0.4955 -0.3395
  119DOPC  H14R16361   5.275  11.520   5.172 -0.9988 -2.0009 -1.7819
  119DOPC  H14S16362   5.386  11.422   5.069  0.0674 -2.0477  0.2272
  119DOPC  C21516363   5.476  11.558   5.218  0.4647 -0.3832 -0.2340
  119DOPC  H15R16364   5.573  11.506   5.202  0.3089 -0.3346 -1.5093
  119DOPC  H15S16365   5.461  11.562   5.328  0.3768 -1.5942 -0.1877
  119DOPC  C21616366   5.495  11.691   5.142 -0.6552  0.6124 -1.0024
  119DOPC  H16R16367   5.405  11.755   5.159  0.3208  1.5284  1.0892
  119DOPC  H16S16368   5.504  11.676   5.032 -1.3347  2.1420 -1.2996
  119DOPC  C21716369   5.617  11.765   5.195 -0.4190  0.2531  0.1745
  119DOPC  H17R16370   5.624  11.860   5.139  2.4491  0.4028  0.6210
  119DOPC  H17S16371   5.706  11.710   5.159 -0.1217  1.4333 -0.9763
  119DOPC  C21816372   5.632  11.792   5.341  0.3208 -0.1701 -0.4297
  119DOPC  H18R16373   5.547  11.847   5.385  0.2575 -0.1718 -0.5476
  119DOPC  H18S16374   5.728  11.840   5.368  0.3622 -1.2437  1.4995
  119DOPC  H18T16375   5.652  11.698   5.397 -1.6101 -0.4177 -0.0854
  119DOPC   C3316376   4.615  10.904   5.493 -0.6713 -0.8288 -0.3716
  119DOPC   H3X16377   4.582  10.960   5.403  0.1347  1.1352  0.4843
  119DOPC   H3Y16378   4.519  10.857   5.525 -2.3045  2.2930 -0.1721
  119DOPC   C3416379   4.738  10.822   5.439 -0.2951  0.2854 -0.4477
  119DOPC   H4X16380   4.772  10.769   5.531  0.5461  0.2131 -0.7855
  119DOPC   H4Y16381   4.823  10.887   5.409  2.6264 -2.5161  1.0846
  119DOPC   C3516382   4.699  10.731   5.318 -0.0107 -0.4050 -0.6401
  119DOPC   H5X16383   4.601  10.688   5.351  0.7332  1.2436  4.6402
  119DOPC   H5Y16384   4.784  10.660   5.309  0.5467  0.2209 -0.3820
  119DOPC   C3616385   4.678  10.796   5.180  0.0833 -0.5532 -0.2234
  119DOPC   H6X16386   4.590  10.865   5.183  1.0074  0.6088  1.4134
  119DOPC   H6Y16387   4.764  10.854   5.141 -1.1925  0.7415 -1.2333
  119DOPC   C3716388   4.643  10.698   5.071 -0.7035 -1.1368 -0.0623
  119DOPC   H7X16389   4.725  10.627   5.051 -1.4007 -2.1049  0.4342
  119DOPC   H7Y16390   4.555  10.646   5.114 -0.7987 -0.1983  0.9364
  119DOPC   C3816391   4.600  10.762   4.935  0.6102  0.1070 -0.1267
  119DOPC   H8X16392   4.697  10.810   4.908  0.5898  0.1461 -0.1292
  119DOPC   H8Y16393   4.531  10.849   4.943 -0.2584 -0.6275  0.6107
  119DOPC   C3916394   4.548  10.663   4.835  0.2175  0.5673  0.3775
  119DOPC   H9X16395   4.439  10.674   4.826  0.3984  2.9250  0.5388
  119DOPC  C31016396   4.629  10.585   4.758 -0.3144  0.0605 -0.7135
  119DOPC  H10X16397   4.581  10.518   4.686 -2.0493  0.8279 -0.3231
  119DOPC  C31116398   4.781  10.578   4.762  0.0244 -0.4522  0.6529
  119DOPC  H11X16399   4.819  10.476   4.783 -0.1461 -1.3020 -2.6251
  119DOPC  H11Y16400   4.818  10.638   4.848  1.0712  0.1135 -0.1500
  119DOPC  C31216401   4.846  10.632   4.633 -0.6262  0.0009  0.3874
  119DOPC  H12X16402   4.829  10.742   4.629 -1.1121 -0.0981 -0.4991
  119DOPC  H12Y16403   4.805  10.591   4.538  1.3636  1.0289 -0.9693
  119DOPC  C31316404   5.000  10.612   4.645  0.3071  0.1166  0.4834
  119DOPC  H13X16405   5.044  10.644   4.742 -2.2827  1.2546  1.3534
  119DOPC  H13Y16406   5.018  10.503   4.653  0.3946  0.2501  2.6299
  119DOPC  C31416407   5.076  10.651   4.514 -0.2974  0.2277 -0.3645
  119DOPC  H14X16408   5.184  10.627   4.529 -0.0055  2.0309  0.6448
  119DOPC  H14Y16409   5.046  10.599   4.420 -0.5471 -1.1229  0.4291
  119DOPC  C31516410   5.084  10.807   4.489 -0.3961  0.0060 -0.3780
  119DOPC  H15X16411   5.132  10.849   4.580  1.6835 -2.7177 -0.0943
  119DOPC  H15Y16412   4.980  10.843   4.476 -0.9609 -1.4510 -0.0107
  119DOPC  C31616413   5.176  10.832   4.371 -0.0909 -0.7778 -0.0453
  119DOPC  H16X16414   5.278  10.807   4.406 -0.5922 -1.9271  0.6707
  119DOPC  H16Y16415   5.160  10.757   4.291  0.7336  0.0882 -1.0372
  119DOPC  C31716416   5.175  10.968   4.304 -0.2886  0.2657 -1.2620
  119DOPC  H17X16417   5.187  11.049   4.380 -0.4368 -0.9204  0.0610
  119DOPC  H17Y16418   5.261  10.966   4.234  1.0310  1.5472  0.2364
  119DOPC  C31816419   5.045  10.994   4.225 -0.4500 -0.8207  0.1056
  119DOPC  H18X16420   4.952  10.958   4.275  0.0577 -1.0656  0.8975
  119DOPC  H18Y16421   5.041  11.101   4.194 -1.1643 -0.6306  0.8220
  119DOPC  H18Z16422   5.052  10.945   4.125  1.4472  2.0367 -1.3038
  120DOPC     N16423   4.644   1.703   6.127  0.0921 -0.5760  0.1372
  120DOPC   C1216424   4.624   1.562   6.174 -0.8277 -0.4393  0.4624
  120DOPC  H12A16425   4.528   1.563   6.223 -1.6596 -0.0978 -1.1303
  120DOPC  H12B16426   4.698   1.532   6.248  0.6396  0.0360 -0.7559
  120DOPC   C1316427   4.761   1.720   6.043 -0.6807 -0.8494 -0.1976
  120DOPC  H13A16428   4.786   1.820   6.009 -0.2954 -0.7269  0.4335
  120DOPC  H13B16429   4.844   1.686   6.104 -1.0018  1.6814  1.8230
  120DOPC  H13C16430   4.759   1.649   5.961  1.7147  0.3590 -1.3954
  120DOPC   C1416431   4.655   1.804   6.235 -0.8403  0.3652 -0.2269
  120DOPC  H14A16432   4.682   1.900   6.194  2.1939  0.4000  1.5915
  120DOPC  H14B16433   4.564   1.808   6.294 -0.8014 -1.3110 -0.0054
  120DOPC  H14C16434   4.721   1.775   6.315 -1.8601 -0.7672  0.2307
  120DOPC   C1516435   4.522   1.748   6.050  0.0021  0.1928  0.4248
  120DOPC  H15A16436   4.514   1.846   6.004  0.3854 -1.2982 -3.1829
  120DOPC  H15B16437   4.433   1.734   6.109 -0.5056 -0.9129 -0.5591
  120DOPC  H15C16438   4.514   1.683   5.964  1.1990  0.4890  0.0711
  120DOPC   C1116439   4.643   1.456   6.068 -0.4292  0.2998 -0.0486
  120DOPC  H11A16440   4.741   1.466   6.017 -1.1148  0.1969 -1.4385
  120DOPC  H11B16441   4.641   1.356   6.118  1.0004  1.6503  2.9503
  120DOPC     P16442   4.392   1.427   6.007 -0.0006  0.3213 -0.1650
  120DOPC   O1316443   4.339   1.532   6.096  0.2066 -0.9408  0.1895
  120DOPC   O1416444   4.388   1.289   6.060 -1.0046  0.1177  0.0637
  120DOPC   O1216445   4.541   1.462   5.965 -0.2199  0.5230 -0.2770
  120DOPC   O1116446   4.324   1.436   5.862 -0.1374  0.6132  0.4251
  120DOPC    C116447   4.196   1.478   5.856 -0.1957 -0.3096 -0.9246
  120DOPC    HA16448   4.190   1.578   5.904  1.4732 -0.7935  0.3438
  120DOPC    HB16449   4.126   1.406   5.904 -0.2466  0.0205 -0.5077
  120DOPC    C216450   4.140   1.484   5.714 -0.6305 -0.4028  0.7032
  120DOPC    HS16451   4.050   1.548   5.710 -2.1529 -2.5158 -0.9055
  120DOPC   O2116452   4.117   1.355   5.671 -0.3221 -0.3427  0.1309
  120DOPC   C2116453   4.030   1.336   5.574 -0.1281 -0.3645  0.5688
  120DOPC   O2216454   3.954   1.420   5.532 -0.0301 -0.1733  0.6277
  120DOPC   C2216455   4.043   1.196   5.517  0.0611 -0.4511 -0.2686
  120DOPC   H2R16456   4.022   1.127   5.602  0.2375  0.1626  0.2778
  120DOPC   H2S16457   4.149   1.190   5.485 -0.1401  0.1294 -1.0549
  120DOPC    C316458   4.246   1.555   5.624 -0.2794 -0.2193 -0.1237
  120DOPC    HX16459   4.344   1.505   5.641 -0.0369  0.9094  2.1224
  120DOPC    HY16460   4.263   1.658   5.660  2.8580 -1.6390  3.1264
  120DOPC   O3116461   4.217   1.535   5.481  0.0494 -0.5170  0.2212
  120DOPC   C3116462   4.184   1.650   5.415  0.4697  0.3282  0.3112
  120DOPC   O3216463   4.158   1.758   5.460  0.6617 -0.4360  0.1654
  120DOPC   C3216464   4.172   1.611   5.266  0.4860 -0.2530 -1.0534
  120DOPC   H2X16465   4.123   1.512   5.270  1.5650 -0.7948  2.9043
  120DOPC   H2Y16466   4.091   1.670   5.219  1.2189 -0.7711 -3.0566
  120DOPC   C2316467   3.953   1.164   5.392 -0.8348  0.5427 -0.2159
  120DOPC   H3R16468   3.857   1.217   5.408 -0.4626  1.0831  0.2601
  120DOPC   H3S16469   3.927   1.056   5.387 -1.3990  0.6696 -0.1046
  120DOPC   C2416470   4.017   1.200   5.257 -0.4441 -0.3349  0.1241
  120DOPC   H4R16471   4.123   1.168   5.257 -0.4720 -0.4382 -0.4486
  120DOPC   H4S16472   4.012   1.310   5.246 -2.1929 -0.3938 -0.0098
  120DOPC   C2516473   3.947   1.147   5.131 -0.2756  0.0130  0.2361
  120DOPC   H5R16474   3.841   1.179   5.144  0.2504  1.5926  0.9180
  120DOPC   H5S16475   3.944   1.036   5.131 -0.8071 -0.0233 -2.1759
  120DOPC   C2616476   4.013   1.209   5.008  0.0404 -1.5574  0.0800
  120DOPC   H6R16477   4.120   1.181   5.010  0.7203  0.8021  0.6474
  120DOPC   H6S16478   4.006   1.320   5.019 -0.5225 -1.8127  4.0216
  120DOPC   C2716479   3.949   1.176   4.874  0.0297 -0.4278  0.3285
  120DOPC   H7R16480   3.844   1.212   4.877  0.5858  1.1858  1.4831
  120DOPC   H7S16481   3.946   1.068   4.847 -1.5581 -0.5845  0.9856
  120DOPC   C2816482   4.025   1.237   4.753  0.3553  0.1985  0.5820
  120DOPC   H8R16483   4.131   1.213   4.771  0.6941  0.8813 -0.4060
  120DOPC   H8S16484   4.030   1.348   4.752 -1.9329  0.3559 -0.3844
  120DOPC   C2916485   3.964   1.195   4.621 -1.2256 -0.2510  0.6800
  120DOPC   H9R16486   3.879   1.247   4.573 -2.2178 -1.3348  1.1991
  120DOPC  C21016487   4.033   1.110   4.545 -0.5157 -0.5487 -0.8952
  120DOPC  H10R16488   4.000   1.090   4.442  0.7130  3.4502 -2.2413
  120DOPC  C21116489   4.164   1.032   4.569  0.5807  0.9649 -0.0648
  120DOPC  H11R16490   4.160   0.925   4.538  0.1277  0.7394  0.7389
  120DOPC  H11S16491   4.197   1.030   4.675 -3.1360 -3.1529  1.3409
  120DOPC  C21216492   4.278   1.102   4.487  0.2746 -0.1130  0.8675
  120DOPC  H12R16493   4.373   1.058   4.523  0.7123  1.6441  2.0117
  120DOPC  H12S16494   4.282   1.209   4.518  2.2525  0.2261 -0.4477
  120DOPC  C21316495   4.261   1.094   4.341  0.7331  0.0603  0.4657
  120DOPC  H13R16496   4.232   1.196   4.310  0.5168  0.2830  1.3562
  120DOPC  H13S16497   4.171   1.031   4.324 -0.8690  2.3161  0.1249
  120DOPC  C21416498   4.385   1.044   4.260  0.2429  1.4189  0.1945
  120DOPC  H14R16499   4.419   0.947   4.302 -0.3645  0.8758 -0.5293
  120DOPC  H14S16500   4.462   1.118   4.288 -1.3291  2.0984  3.1176
  120DOPC  C21516501   4.378   1.032   4.103  0.0994  0.2385 -0.0631
  120DOPC  H15R16502   4.380   1.139   4.072  0.7186  0.0787 -0.5967
  120DOPC  H15S16503   4.281   0.990   4.068 -0.3819  1.7275 -0.5826
  120DOPC  C21616504   4.494   0.959   4.032 -0.5805  0.3759  0.5024
  120DOPC  H16R16505   4.504   0.856   4.072 -1.0397 -0.5427 -1.5784
  120DOPC  H16S16506   4.595   1.001   4.049  1.0011 -1.9036 -2.3335
  120DOPC  C21716507   4.463   0.952   3.878 -0.3330  0.2808  0.2621
  120DOPC  H17R16508   4.443   1.054   3.840 -0.5573  0.2496  0.2929
  120DOPC  H17S16509   4.369   0.895   3.863 -0.9355  1.7714 -2.2119
  120DOPC  C21816510   4.576   0.885   3.797 -0.1332 -0.2048  0.0665
  120DOPC  H18R16511   4.544   0.867   3.692 -1.1238 -0.3899  0.3924
  120DOPC  H18S16512   4.608   0.785   3.834  0.1249 -0.9989 -2.1586
  120DOPC  H18T16513   4.659   0.958   3.810 -0.4472  0.1826 -0.0941
  120DOPC   C3316514   4.305   1.612   5.193 -0.4876 -0.2994 -0.4184
  120DOPC   H3X16515   4.372   1.546   5.253  0.5277 -0.4836 -1.7166
  120DOPC   H3Y16516   4.350   1.713   5.203  0.8832 -0.9547  0.3739
  120DOPC   C3416517   4.301   1.547   5.056 -0.6932  0.1252  0.9686
  120DOPC   H4X16518   4.294   1.438   5.072  0.2177 -0.2628 -1.0118
  120DOPC   H4Y16519   4.386   1.579   4.992 -1.0791 -0.6877  0.0335
  120DOPC   C3516520   4.174   1.587   4.969 -0.4227  0.4494 -0.6719
  120DOPC   H5X16521   4.138   1.674   5.027  1.2327  0.5403  0.2970
  120DOPC   H5Y16522   4.099   1.506   4.971 -1.8455  1.7225 -0.5285
  120DOPC   C3616523   4.201   1.617   4.823 -0.2558 -0.2572  0.3626
  120DOPC   H6X16524   4.245   1.522   4.785  1.0085 -0.2870  1.8218
  120DOPC   H6Y16525   4.104   1.635   4.771  0.5298  2.8460 -0.2197
  120DOPC   C3716526   4.281   1.750   4.798  0.2074 -0.2911  0.6641
  120DOPC   H7X16527   4.213   1.830   4.837 -0.3674 -0.6705  0.4471
  120DOPC   H7Y16528   4.366   1.753   4.870 -2.1575  0.9336  3.6846
  120DOPC   C3816529   4.325   1.774   4.656  0.3566 -0.2208  0.3059
  120DOPC   H8X16530   4.240   1.752   4.588 -1.3552 -2.3427  2.9339
  120DOPC   H8Y16531   4.404   1.700   4.634 -1.1490 -1.9175  0.3508
  120DOPC   C3916532   4.373   1.918   4.640  0.8759 -0.1581  0.2416
  120DOPC   H9X16533   4.292   1.988   4.615 -0.0043 -0.2936  2.4674
  120DOPC  C31016534   4.504   1.956   4.647 -0.0279 -0.0022  0.5332
  120DOPC  H10X16535   4.529   2.063   4.645 -2.6738  0.7070  0.9039
  120DOPC  C31116536   4.624   1.878   4.698  0.3588 -0.2415  0.5516
  120DOPC  H11X16537   4.642   1.788   4.635 -2.6635  0.4562 -1.5616
  120DOPC  H11Y16538   4.615   1.839   4.802 -0.5189  1.5207  1.1736
  120DOPC  C31216539   4.750   1.975   4.686  0.2422  0.7931  0.2558
  120DOPC  H12X16540   4.838   1.938   4.743  2.2135  1.6070 -2.1162
  120DOPC  H12Y16541   4.722   2.074   4.729 -0.9504  0.9046 -0.7347
  120DOPC  C31316542   4.788   2.013   4.547  0.7498 -0.1683  0.0879
  120DOPC  H13X16543   4.695   2.025   4.487  2.1061  1.0836 -1.9106
  120DOPC  H13Y16544   4.834   2.114   4.551 -2.1877  1.2500  0.8215
  120DOPC  C31416545   4.884   1.916   4.484 -0.0453 -0.2209 -0.3402
  120DOPC  H14X16546   4.975   1.900   4.546 -0.3256 -4.7115 -0.7268
  120DOPC  H14Y16547   4.844   1.813   4.493  1.4270 -0.6734  1.8647
  120DOPC  C31516548   4.919   1.951   4.338  0.8375 -0.4619  0.1468
  120DOPC  H15X16549   4.825   1.942   4.280 -0.0014 -1.9562  1.6360
  120DOPC  H15Y16550   4.986   1.883   4.282 -1.4805 -1.1056 -2.0342
  120DOPC  C31616551   4.946   2.098   4.302 -0.7057 -0.1132  0.9754
  120DOPC  H16X16552   4.941   2.114   4.192 -1.0276 -1.0218  0.8472
  120DOPC  H16Y16553   4.895   2.181   4.356 -4.3619 -1.3643 -0.2762
  120DOPC  C31716554   5.104   2.108   4.322 -0.2089 -0.3632  0.7312
  120DOPC  H17X16555   5.129   2.085   4.427 -0.6094 -1.1005  0.6700
  120DOPC  H17Y16556   5.147   2.028   4.258  0.1629 -2.9201  3.9615
  120DOPC  C31816557   5.163   2.247   4.284  0.6950  0.4105 -0.8635
  120DOPC  H18X16558   5.273   2.246   4.305  0.0719 -1.5594  3.5513
  120DOPC  H18Y16559   5.147   2.272   4.177 -0.9544 -0.4639 -0.8387
  120DOPC  H18Z16560   5.106   2.330   4.331 -0.2523 -0.9139  0.4091
  121DOPC     N16561   5.786   7.095   6.421 -0.6542 -0.5725 -0.4925
  121DOPC   C1216562   5.891   7.195   6.375 -0.0484 -0.0057 -0.3190
  121DOPC  H12A16563   5.977   7.155   6.323  0.6179  1.1136 -0.1262
  121DOPC  H12B16564   5.939   7.233   6.464  1.4569  0.0739 -1.1220
  121DOPC   C1316565   5.849   6.972   6.472  0.2003 -0.2906  0.8862
  121DOPC  H13A16566   5.770   6.905   6.503 -1.3633  1.4069  0.8105
  121DOPC  H13B16567   5.899   6.926   6.388 -3.8478 -0.4271 -1.7702
  121DOPC  H13C16568   5.914   6.995   6.554  0.7632  2.4439 -0.1912
  121DOPC   C1416569   5.700   7.065   6.300 -0.9949  0.2711  0.1563
  121DOPC  H14A16570   5.763   7.029   6.219  1.2974 -1.2262  2.4483
  121DOPC  H14B16571   5.620   6.997   6.325  0.2468 -1.8727 -1.2363
  121DOPC  H14C16572   5.653   7.159   6.278  2.2944  1.8291 -0.9152
  121DOPC   C1516573   5.691   7.151   6.523  0.2522  0.1881 -0.3648
  121DOPC  H15A16574   5.630   7.075   6.570  0.9239 -1.0656 -1.4233
  121DOPC  H15B16575   5.620   7.220   6.479  1.3791  1.3742 -0.3689
  121DOPC  H15C16576   5.747   7.205   6.597  0.8575 -0.8988 -0.0086
  121DOPC   C1116577   5.843   7.332   6.304  0.0102  0.3077  0.4482
  121DOPC  H11A16578   5.927   7.378   6.248  1.3456 -0.3664  1.8129
  121DOPC  H11B16579   5.763   7.302   6.234  0.2888  0.7423 -0.0585
  121DOPC     P16580   5.742   7.554   6.375  0.5493 -0.4481 -0.2257
  121DOPC   O1316581   5.841   7.655   6.414 -0.4931 -0.4979 -0.4625
  121DOPC   O1416582   5.601   7.570   6.432 -0.4626  0.3394  0.1462
  121DOPC   O1216583   5.793   7.413   6.408  0.3907  0.3893  0.5442
  121DOPC   O1116584   5.730   7.563   6.226  0.0799  0.1748  0.3596
  121DOPC    C116585   5.619   7.619   6.152  0.4713 -0.0856  0.3424
  121DOPC    HA16586   5.649   7.720   6.118 -0.0372 -0.0128  0.1096
  121DOPC    HB16587   5.526   7.617   6.212 -0.4870 -1.2507 -1.0908
  121DOPC    C216588   5.598   7.533   6.026  0.8199 -0.0294 -0.3478
  121DOPC    HS16589   5.629   7.434   6.066  0.6540  0.0042 -0.1351
  121DOPC   O2116590   5.678   7.565   5.920  0.3639  0.2684  0.0507
  121DOPC   C2116591   5.719   7.468   5.840 -0.0279 -0.2681 -0.2848
  121DOPC   O2216592   5.717   7.348   5.850 -0.1825  0.1307 -0.1171
  121DOPC   C2216593   5.762   7.545   5.716  0.1460  0.2087 -0.2597
  121DOPC   H2R16594   5.821   7.629   5.758  0.6944 -1.4599  2.5660
  121DOPC   H2S16595   5.671   7.584   5.666 -0.8143  0.9939  2.0058
  121DOPC    C316596   5.447   7.540   5.977 -0.7567  0.0218 -0.6141
  121DOPC    HX16597   5.425   7.648   5.963 -0.2499  0.4239  1.3697
  121DOPC    HY16598   5.392   7.503   6.066  0.4321 -1.9891 -0.6409
  121DOPC   O3116599   5.423   7.459   5.855  0.1049 -0.3948  0.1787
  121DOPC   C3116600   5.328   7.504   5.773 -0.8995 -0.2114 -0.2979
  121DOPC   O3216601   5.276   7.614   5.787  0.2350  0.3045 -1.0747
  121DOPC   C3216602   5.300   7.405   5.663 -0.2613 -0.0548  0.5826
  121DOPC   H2X16603   5.389   7.400   5.597 -0.5462 -1.6217  0.2661
  121DOPC   H2Y16604   5.273   7.303   5.699  0.7890 -0.5448  0.0040
  121DOPC   C2316605   5.850   7.464   5.621  0.4336 -0.4658  0.1724
  121DOPC   H3R16606   5.801   7.368   5.592  1.5170 -1.0628  0.2224
  121DOPC   H3S16607   5.942   7.432   5.675  0.4145  0.8469  1.0286
  121DOPC   C2416608   5.886   7.535   5.483 -0.0021  0.4828 -0.0654
  121DOPC   H4R16609   5.996   7.520   5.472 -0.0176  1.4488 -1.7933
  121DOPC   H4S16610   5.872   7.644   5.501  0.1701  0.5662 -0.4315
  121DOPC   C2516611   5.811   7.496   5.357 -0.0320  0.1625 -0.0480
  121DOPC   H5R16612   5.706   7.531   5.369 -0.4318 -0.2099 -2.0054
  121DOPC   H5S16613   5.807   7.386   5.368  3.4318 -0.0166  0.3614
  121DOPC   C2616614   5.886   7.543   5.230  0.3643  0.0200  0.3766
  121DOPC   H6R16615   5.996   7.537   5.242  0.4800  0.9380 -0.1249
  121DOPC   H6S16616   5.849   7.648   5.226 -1.0503 -0.4685  0.1831
  121DOPC   C2716617   5.849   7.467   5.106  0.1892  0.5490 -0.4107
  121DOPC   H7R16618   5.747   7.500   5.079  0.7322  2.5181 -0.2212
  121DOPC   H7S16619   5.835   7.359   5.127 -0.3131  0.5026 -0.9529
  121DOPC   C2816620   5.935   7.501   4.981  0.2982 -0.2786  0.8524
  121DOPC   H8R16621   5.888   7.461   4.888 -0.2193  2.6310 -0.2390
  121DOPC   H8S16622   6.034   7.452   4.991  0.4902  0.2701  1.7180
  121DOPC   C2916623   5.943   7.652   4.958 -0.6142  0.4315 -0.2194
  121DOPC   H9R16624   6.015   7.702   5.024  0.0814 -0.1042 -0.5648
  121DOPC  C21016625   5.876   7.726   4.863 -0.6249 -0.6159 -0.5820
  121DOPC  H10R16626   5.899   7.833   4.862  0.7842 -0.8925 -0.5046
  121DOPC  C21116627   5.784   7.672   4.757  0.1125 -0.7740  0.2607
  121DOPC  H11R16628   5.721   7.753   4.715  2.2452  0.7242 -0.1794
  121DOPC  H11S16629   5.708   7.614   4.815 -0.9129 -1.4242 -1.6426
  121DOPC  C21216630   5.862   7.596   4.651  0.2446  0.5146 -0.4612
  121DOPC  H12R16631   5.927   7.517   4.695  0.2040 -0.1624 -1.5990
  121DOPC  H12S16632   5.933   7.658   4.593  2.4423  0.0970  1.6038
  121DOPC  C21316633   5.757   7.518   4.565 -0.2144 -0.2688  0.2846
  121DOPC  H13R16634   5.680   7.474   4.631  0.3711  1.2402  2.0519
  121DOPC  H13S16635   5.819   7.445   4.508 -0.2894  0.0866 -0.2678
  121DOPC  C21416636   5.686   7.600   4.458 -0.5459  0.0888 -0.6635
  121DOPC  H14R16637   5.759   7.649   4.390  2.7881 -0.2532  2.3824
  121DOPC  H14S16638   5.636   7.687   4.507 -1.8320 -1.0915  0.1638
  121DOPC  C21516639   5.591   7.518   4.373 -0.3274  0.1000  0.5751
  121DOPC  H15R16640   5.512   7.463   4.428 -0.5115 -0.8328 -0.5991
  121DOPC  H15S16641   5.646   7.445   4.310 -2.0201 -1.3015  0.6569
  121DOPC  C21616642   5.500   7.610   4.278 -0.1954 -0.0714  0.0307
  121DOPC  H16R16643   5.567   7.680   4.224  0.1696 -0.6426 -0.2760
  121DOPC  H16S16644   5.450   7.680   4.348  2.0807  2.3019 -0.5475
  121DOPC  C21716645   5.391   7.537   4.189 -0.0224  0.4215  0.2438
  121DOPC  H17R16646   5.311   7.599   4.144 -0.6377 -0.7729 -0.3383
  121DOPC  H17S16647   5.334   7.463   4.249 -1.0240  0.1993 -0.9390
  121DOPC  C21816648   5.469   7.470   4.066  0.8139 -0.3783 -0.1241
  121DOPC  H18R16649   5.395   7.409   4.010 -0.4222  0.9778 -0.0398
  121DOPC  H18S16650   5.557   7.416   4.104 -0.0353 -0.9305  1.1036
  121DOPC  H18T16651   5.505   7.550   3.997  0.5501 -0.2241 -0.0853
  121DOPC   C3316652   5.175   7.443   5.578  0.1835 -0.0422  0.1769
  121DOPC   H3X16653   5.170   7.554   5.567  0.6851  0.3446  2.9857
  121DOPC   H3Y16654   5.090   7.396   5.632  1.7585 -2.4254  0.7168
  121DOPC   C3416655   5.164   7.386   5.437  0.3226  0.5300  0.1868
  121DOPC   H4X16656   5.074   7.426   5.385  0.7259 -1.2993 -2.1015
  121DOPC   H4Y16657   5.170   7.278   5.460  0.9621  0.7466  1.1182
  121DOPC   C3516658   5.276   7.414   5.338  0.4965  0.0804  0.8791
  121DOPC   H5X16659   5.369   7.381   5.390 -0.2863 -0.5587  1.8933
  121DOPC   H5Y16660   5.287   7.525   5.334  0.1812  0.1317  1.4194
  121DOPC   C3616661   5.253   7.345   5.199 -0.1472  0.0916 -0.3176
  121DOPC   H6X16662   5.266   7.235   5.209 -2.2760 -0.0441  1.7691
  121DOPC   H6Y16663   5.150   7.360   5.161 -1.1932 -0.4350  2.0758
  121DOPC   C3716664   5.360   7.390   5.102  0.2394  0.7448  0.7285
  121DOPC   H7X16665   5.343   7.500   5.097  1.4034  0.9353  0.5450
  121DOPC   H7Y16666   5.467   7.375   5.128  0.1775  0.9697  1.1264
  121DOPC   C3816667   5.335   7.325   4.963  0.3786  0.2661  0.7570
  121DOPC   H8X16668   5.231   7.357   4.940  1.3320  1.8746 -1.7386
  121DOPC   H8Y16669   5.328   7.215   4.977  0.5064 -0.0523 -1.2995
  121DOPC   C3916670   5.436   7.362   4.853  0.6748  0.2688 -0.0094
  121DOPC   H9X16671   5.538   7.327   4.876  0.6036 -0.5281 -0.8728
  121DOPC  C31016672   5.402   7.434   4.742  0.1353 -0.0799 -0.5198
  121DOPC  H10X16673   5.479   7.470   4.672  0.7975  0.9958  0.7290
  121DOPC  C31116674   5.261   7.484   4.711  0.0288  0.0159  0.4702
  121DOPC  H11X16675   5.271   7.584   4.663 -0.7939  0.4220  1.1146
  121DOPC  H11Y16676   5.200   7.499   4.803 -0.2399  0.3689  0.2379
  121DOPC  C31216677   5.173   7.387   4.617  0.1818  0.0517  0.5196
  121DOPC  H12X16678   5.198   7.279   4.632 -0.2564 -0.4394 -1.9458
  121DOPC  H12Y16679   5.196   7.411   4.512 -1.6934 -0.7484 -0.1234
  121DOPC  C31316680   5.020   7.409   4.622  0.0120  0.0185 -0.9774
  121DOPC  H13X16681   5.007   7.519   4.634 -0.3382 -0.0360 -0.8546
  121DOPC  H13Y16682   4.975   7.367   4.529  0.9556 -0.5192 -1.2053
  121DOPC  C31416683   4.950   7.343   4.744 -0.7602  0.4527  0.5451
  121DOPC  H14X16684   4.947   7.232   4.741  1.9201  0.3210 -0.0298
  121DOPC  H14Y16685   4.994   7.362   4.845  0.4285  0.5360  0.0250
  121DOPC  C31516686   4.813   7.410   4.756  1.2208 -0.0075  0.1366
  121DOPC  H15X16687   4.751   7.399   4.665  0.2852 -0.4497  0.8231
  121DOPC  H15Y16688   4.835   7.519   4.767  0.5086  0.2239 -0.5985
  121DOPC  C31616689   4.737   7.372   4.881 -0.0004 -0.4690 -0.2733
  121DOPC  H16X16690   4.690   7.271   4.886  2.0694 -1.4752 -0.1532
  121DOPC  H16Y16691   4.808   7.371   4.965  2.7627 -1.6545 -2.4676
  121DOPC  C31716692   4.631   7.483   4.909 -0.1283 -0.5260 -0.1114
  121DOPC  H17X16693   4.688   7.578   4.899  0.2016 -0.7858 -0.7625
  121DOPC  H17Y16694   4.555   7.482   4.827 -1.9019 -1.1347  1.4709
  121DOPC  C31816695   4.541   7.485   5.038 -0.4104 -0.1091 -0.2636
  121DOPC  H18X16696   4.602   7.495   5.130 -0.5754  0.1943 -0.1842
  121DOPC  H18Y16697   4.472   7.572   5.036 -1.0725 -0.5414 -4.2139
  121DOPC  H18Z16698   4.479   7.393   5.046  0.5456 -0.8087 -0.6272
  122DOPC     N16699  12.089   3.148   6.965  0.1102 -0.5502 -0.2240
  122DOPC   C1216700  12.143   3.034   6.884  0.6294  0.2870  0.9504
  122DOPC  H12A16701  12.096   2.939   6.906  1.0173 -0.4784 -1.2193
  122DOPC  H12B16702  12.247   3.012   6.897  0.7048 -1.0748 -1.3174
  122DOPC   C1316703  12.109   3.109   7.111  0.0270 -0.2323  0.0324
  122DOPC  H13A16704  12.211   3.106   7.145 -0.7734  0.8419  2.8367
  122DOPC  H13B16705  12.052   3.181   7.169 -1.5755  0.1998 -1.9782
  122DOPC  H13C16706  12.059   3.015   7.131  0.9474 -0.6781  0.2964
  122DOPC   C1416707  11.942   3.157   6.949  0.3435 -0.2257 -0.8067
  122DOPC  H14A16708  11.891   3.065   6.976 -1.1055  0.4020 -1.2848
  122DOPC  H14B16709  11.889   3.239   6.995  1.4214  2.0365 -3.3383
  122DOPC  H14C16710  11.916   3.162   6.844 -0.0508  0.8932 -0.6699
  122DOPC   C1516711  12.161   3.273   6.927  0.1625 -0.4947  0.3695
  122DOPC  H15A16712  12.125   3.358   6.983 -0.2522 -0.6005  0.2625
  122DOPC  H15B16713  12.162   3.290   6.820 -2.3118  0.3051  0.4110
  122DOPC  H15C16714  12.265   3.259   6.953 -0.1342 -1.9895  0.8198
  122DOPC   C1116715  12.129   3.048   6.730  0.7526  0.0576  0.0832
  122DOPC  H11A16716  12.182   3.137   6.690 -0.0048 -0.7333 -2.8961
  122DOPC  H11B16717  12.181   2.961   6.686 -0.5007 -1.6741  1.8056
  122DOPC     P16718  11.913   2.911   6.656  0.1617 -0.3863 -0.1740
  122DOPC   O1316719  11.849   2.856   6.773  0.2415 -0.5804 -0.4250
  122DOPC   O1416720  12.000   2.818   6.585  0.6387 -0.4242  0.1044
  122DOPC   O1216721  11.989   3.047   6.689 -0.6892 -0.4333 -0.3847
  122DOPC   O1116722  11.799   2.961   6.562 -0.2613 -0.3794  0.0764
  122DOPC    C116723  11.839   3.050   6.454  0.4258  0.2460  0.6160
  122DOPC    HA16724  11.924   3.118   6.476  0.5305  0.2984  0.0668
  122DOPC    HB16725  11.755   3.121   6.442  0.8235  1.5496  4.2599
  122DOPC    C216726  11.845   2.980   6.321 -0.0070  0.5197  0.0373
  122DOPC    HS16727  11.923   2.901   6.329 -0.5199  0.0240  0.1722
  122DOPC   O2116728  11.857   3.079   6.212 -0.6585  0.3370 -0.1844
  122DOPC   C2116729  11.921   3.024   6.111 -0.3498 -0.7080  0.3897
  122DOPC   O2216730  11.985   2.923   6.102  0.0283 -0.5398  0.4833
  122DOPC   C2216731  11.904   3.115   5.988 -0.1715 -0.1012  0.1645
  122DOPC   H2R16732  11.963   3.067   5.907  0.9941 -0.2471  1.0885
  122DOPC   H2S16733  11.946   3.214   6.014  0.9532 -0.9143  1.5703
  122DOPC    C316734  11.716   2.901   6.291 -0.6980 -0.2729 -0.0585
  122DOPC    HX16735  11.638   2.979   6.291  0.5429  1.0058  0.0093
  122DOPC    HY16736  11.697   2.841   6.382  1.3714  2.4966  2.3824
  122DOPC   O3116737  11.701   2.832   6.164  0.5253 -0.4519 -0.2493
  122DOPC   C3116738  11.755   2.710   6.167  0.6363 -0.1708 -0.6993
  122DOPC   O3216739  11.807   2.661   6.262 -0.6222 -0.0779 -0.5184
  122DOPC   C3216740  11.747   2.651   6.029  0.6524 -0.1228  0.2053
  122DOPC   H2X16741  11.640   2.669   6.009  0.2638 -1.3275  1.0909
  122DOPC   H2Y16742  11.820   2.711   5.970  0.8563 -0.1276  0.4483
  122DOPC   C2316743  11.761   3.111   5.938 -0.3209 -0.4518 -0.5433
  122DOPC   H3R16744  11.730   3.209   5.897 -0.4270 -0.9031 -1.5721
  122DOPC   H3S16745  11.682   3.091   6.014 -1.1367  1.7199 -0.7722
  122DOPC   C2416746  11.733   3.013   5.826 -0.2710 -0.3023 -0.2609
  122DOPC   H4R16747  11.765   2.907   5.841  0.5387 -0.1629 -0.9453
  122DOPC   H4S16748  11.777   3.045   5.730  0.5401 -0.6712 -0.0208
  122DOPC   C2516749  11.575   2.995   5.801 -0.2850  0.0979  0.5159
  122DOPC   H5R16750  11.532   3.097   5.793 -1.0111 -0.2701 -0.3708
  122DOPC   H5S16751  11.532   2.935   5.885  1.9328  0.2477  1.8470
  122DOPC   C2616752  11.545   2.927   5.668  0.0143 -0.3026  0.6707
  122DOPC   H6R16753  11.623   2.970   5.602 -0.5938  1.3444  0.9919
  122DOPC   H6S16754  11.449   2.964   5.628  0.8647 -1.1919 -2.4836
  122DOPC   C2716755  11.528   2.775   5.688  0.3646  0.5470 -1.0226
  122DOPC   H7R16756  11.439   2.758   5.752  2.1371 -2.1869  1.0088
  122DOPC   H7S16757  11.603   2.708   5.736 -0.7256  0.6799  0.9886
  122DOPC   C2816758  11.510   2.708   5.548 -0.3760  1.0094 -0.2400
  122DOPC   H8R16759  11.612   2.718   5.505 -0.0033 -0.9160  0.0984
  122DOPC   H8S16760  11.433   2.762   5.489 -2.0443 -0.3486  0.6152
  122DOPC   C2916761  11.478   2.563   5.558 -0.1282  0.4962  0.3474
  122DOPC   H9R16762  11.526   2.507   5.640 -0.9662 -3.1667 -1.4593
  122DOPC  C21016763  11.393   2.505   5.474 -0.3399  0.2705 -0.2248
  122DOPC  H10R16764  11.387   2.396   5.483  1.5009  0.1808  0.3751
  122DOPC  C21116765  11.334   2.569   5.352  0.1664 -0.2530 -0.3066
  122DOPC  H11R16766  11.404   2.647   5.316  0.9499 -1.3102 -1.1422
  122DOPC  H11S16767  11.244   2.622   5.390  0.7553 -0.4016  1.4115
  122DOPC  C21216768  11.298   2.470   5.234 -0.6006  0.1440  0.3560
  122DOPC  H12R16769  11.288   2.533   5.144  0.4004 -0.8743 -0.5032
  122DOPC  H12S16770  11.207   2.413   5.259  0.6058 -1.7626  0.6304
  122DOPC  C21316771  11.411   2.374   5.199  0.0390  0.0239 -0.2756
  122DOPC  H13R16772  11.432   2.297   5.276  1.1869 -0.7579 -1.3309
  122DOPC  H13S16773  11.510   2.421   5.184  1.3609 -2.1087  1.2118
  122DOPC  C21416774  11.378   2.281   5.081  0.3852  0.2867 -0.3115
  122DOPC  H14R16775  11.273   2.249   5.102  0.9184 -1.0637  0.4151
  122DOPC  H14S16776  11.434   2.185   5.086 -0.6790 -0.3517 -0.2836
  122DOPC  C21516777  11.381   2.348   4.944  0.2065 -0.6760 -0.7963
  122DOPC  H15R16778  11.481   2.389   4.922 -0.7612  1.8768 -0.7881
  122DOPC  H15S16779  11.309   2.433   4.953  1.0394 -0.1221  1.3105
  122DOPC  C21616780  11.336   2.264   4.821 -0.6703  0.4980 -0.3253
  122DOPC  H16R16781  11.423   2.197   4.800 -0.2051  0.6015  1.1520
  122DOPC  H16S16782  11.324   2.333   4.735 -2.3858  0.7088  0.0504
  122DOPC  C21716783  11.203   2.185   4.849  0.3057  0.3699 -0.1366
  122DOPC  H17R16784  11.215   2.106   4.926 -0.7373  1.7460  1.5098
  122DOPC  H17S16785  11.181   2.113   4.767 -0.7248 -0.6134  0.9677
  122DOPC  C21816786  11.073   2.270   4.876  0.2773  0.1843 -0.0546
  122DOPC  H18R16787  10.985   2.217   4.917 -0.4232  1.7130  0.4863
  122DOPC  H18S16788  11.040   2.305   4.776 -0.5482  0.5329  0.3341
  122DOPC  H18T16789  11.096   2.352   4.947 -0.9008  0.6958 -0.2521
  122DOPC   C3316790  11.790   2.505   6.021 -0.5770 -0.1290 -0.1824
  122DOPC   H3X16791  11.870   2.475   6.092  0.5103  0.0553 -1.2869
  122DOPC   H3Y16792  11.840   2.497   5.922 -1.1884  3.8544 -0.9755
  122DOPC   C3416793  11.661   2.419   6.033  0.1923  0.1397  0.0766
  122DOPC   H4X16794  11.600   2.455   6.119 -0.4688 -0.1316 -0.2664
  122DOPC   H4Y16795  11.692   2.315   6.056 -1.9503 -0.6969 -0.5647
  122DOPC   C3516796  11.576   2.408   5.909  0.2339 -0.3684 -0.7030
  122DOPC   H5X16797  11.639   2.355   5.835 -1.0239 -0.2008 -1.9391
  122DOPC   H5Y16798  11.561   2.508   5.862  0.7231  0.1084  0.1322
  122DOPC   C3616799  11.449   2.322   5.934 -0.5683 -0.4837 -0.3438
  122DOPC   H6X16800  11.487   2.226   5.976 -0.6564  0.7632  2.8964
  122DOPC   H6Y16801  11.390   2.365   6.018  0.4794  0.2278  0.0501
  122DOPC   C3716802  11.365   2.293   5.812 -0.3949  0.0992  0.3601
  122DOPC   H7X16803  11.304   2.383   5.791  0.4132  0.8617  1.1681
  122DOPC   H7Y16804  11.424   2.269   5.720  0.8511  1.3511  0.8001
  122DOPC   C3816805  11.261   2.173   5.841  0.1502  0.0632  0.0466
  122DOPC   H8X16806  11.180   2.170   5.764 -1.4281  1.7489  1.5303
  122DOPC   H8Y16807  11.208   2.188   5.937 -2.1469 -1.6574 -0.8585
  122DOPC   C3916808  11.328   2.037   5.832 -0.0457  0.3821 -0.2494
  122DOPC   H9X16809  11.372   1.997   5.925 -0.6586  1.1267  0.3603
  122DOPC  C31016810  11.382   1.983   5.719 -0.3174  0.3643  0.4840
  122DOPC  H10X16811  11.452   1.898   5.727 -0.8477 -0.1586 -0.3034
  122DOPC  C31116812  11.360   2.034   5.575  0.0146 -0.0407  0.3000
  122DOPC  H11X16813  11.440   2.108   5.553 -1.5798  2.5330  2.5927
  122DOPC  H11Y16814  11.265   2.089   5.565 -0.6005 -1.1626 -0.2094
  122DOPC  C31216815  11.361   1.905   5.487  0.1796 -0.0282  0.0799
  122DOPC  H12X16816  11.261   1.857   5.490  0.1870 -0.2172 -1.4767
  122DOPC  H12Y16817  11.435   1.829   5.521 -1.5298 -0.9992  1.8555
  122DOPC  C31316818  11.390   1.937   5.338 -0.6331 -0.7843  0.0460
  122DOPC  H13X16819  11.316   2.013   5.305  0.6940  0.8978  0.8018
  122DOPC  H13Y16820  11.491   1.979   5.324 -0.2216 -2.4658 -2.6161
  122DOPC  C31416821  11.367   1.819   5.243 -0.3270  0.1428  0.2630
  122DOPC  H14X16822  11.440   1.738   5.266 -1.6590 -1.0749  0.3468
  122DOPC  H14Y16823  11.267   1.777   5.266 -1.4901  2.6213  0.0113
  122DOPC  C31516824  11.382   1.869   5.098 -0.5072  0.3521 -0.0465
  122DOPC  H15X16825  11.490   1.889   5.080 -0.6099  2.4401  1.3358
  122DOPC  H15Y16826  11.335   1.968   5.080  0.1737  0.6649 -0.1458
  122DOPC  C31616827  11.344   1.769   4.994 -0.8184 -0.0915 -0.0590
  122DOPC  H16X16828  11.380   1.672   5.034  0.9614  0.4048 -0.3871
  122DOPC  H16Y16829  11.233   1.767   4.981 -0.6627 -0.5116 -1.5211
  122DOPC  C31716830  11.401   1.777   4.853  0.1099  0.5366 -0.3104
  122DOPC  H17X16831  11.388   1.867   4.788 -0.1211 -0.5769 -1.8718
  122DOPC  H17Y16832  11.512   1.773   4.852  0.1101 -3.3545 -1.7253
  122DOPC  C31816833  11.368   1.654   4.775 -0.6263  0.4352  0.0125
  122DOPC  H18X16834  11.262   1.623   4.786  0.4820 -4.3249 -0.3783
  122DOPC  H18Y16835  11.396   1.665   4.668  0.0312  1.6788  0.2986
  122DOPC  H18Z16836  11.422   1.564   4.811  0.0944  0.9139  0.1527
  123DOPC     N16837   8.223   7.659   6.178 -0.5688  0.2780 -0.2432
  123DOPC   C1216838   8.270   7.556   6.077  0.0571 -0.7257  0.0473
  123DOPC  H12A16839   8.374   7.528   6.089 -0.3660 -2.2976  0.2642
  123DOPC  H12B16840   8.259   7.602   5.980 -1.6689 -0.3002  0.4042
  123DOPC   C1316841   8.229   7.605   6.312 -0.1514  0.3007 -0.1682
  123DOPC  H13A16842   8.185   7.668   6.388 -0.9088 -0.2837 -0.1120
  123DOPC  H13B16843   8.169   7.515   6.306 -1.1083  0.8592  0.8247
  123DOPC  H13C16844   8.329   7.581   6.346 -1.0542 -2.7946  0.6081
  123DOPC   C1416845   8.082   7.702   6.146 -0.4118  0.4531 -0.3353
  123DOPC  H14A16846   8.065   7.729   6.043 -0.6895  3.8100  0.4707
  123DOPC  H14B16847   8.016   7.618   6.164  1.8212 -1.3749 -0.2112
  123DOPC  H14C16848   8.064   7.784   6.215  0.3396 -0.4783  1.0228
  123DOPC   C1516849   8.299   7.783   6.168  0.7044  0.5890 -0.0278
  123DOPC  H15A16850   8.278   7.832   6.073  1.1540  1.8685  0.5109
  123DOPC  H15B16851   8.403   7.765   6.187  0.3227 -1.5851  0.1777
  123DOPC  H15C16852   8.267   7.849   6.248  0.1325  0.7711 -0.3947
  123DOPC   C1116853   8.187   7.432   6.056  0.1453  0.1691 -0.6701
  123DOPC  H11A16854   8.227   7.360   5.981 -3.3722 -2.1597 -0.5260
  123DOPC  H11B16855   8.203   7.363   6.142  3.2594 -1.3253 -2.2621
  123DOPC     P16856   7.957   7.426   5.910 -0.5060  0.0500  0.3411
  123DOPC   O1316857   7.847   7.528   5.925 -0.0627  0.2822  0.8537
  123DOPC   O1416858   7.931   7.277   5.918 -0.0172  0.3703 -0.0281
  123DOPC   O1216859   8.046   7.455   6.033 -0.2628  0.3471 -0.0014
  123DOPC   O1116860   8.061   7.461   5.788 -0.3537  0.7723 -0.4875
  123DOPC    C116861   8.060   7.383   5.667  0.8778  0.0098  0.0243
  123DOPC    HA16862   8.050   7.275   5.690 -3.6139  0.3697  0.5994
  123DOPC    HB16863   8.153   7.407   5.610 -0.2420  0.8447 -1.5676
  123DOPC    C216864   7.936   7.421   5.577  0.5121 -1.0149 -0.2976
  123DOPC    HS16865   7.845   7.385   5.630 -1.4296 -0.0430 -2.7390
  123DOPC   O2116866   7.944   7.368   5.442  0.1864 -0.3413  0.0243
  123DOPC   C2116867   7.920   7.236   5.445  0.2374 -0.2209 -0.3511
  123DOPC   O2216868   7.861   7.173   5.531  0.4484 -0.1064  0.1697
  123DOPC   C2216869   7.977   7.172   5.322 -0.4429 -0.0931  0.2496
  123DOPC   H2R16870   7.919   7.080   5.300  2.6164 -1.7917 -1.2933
  123DOPC   H2S16871   8.086   7.160   5.333 -0.6768 -1.0603  1.7639
  123DOPC    C316872   7.913   7.571   5.566 -0.2544  0.2898 -0.0008
  123DOPC    HX16873   8.001   7.619   5.520  0.3604 -0.9594 -0.1606
  123DOPC    HY16874   7.885   7.621   5.662 -2.4851  0.3514 -0.6303
  123DOPC   O3116875   7.802   7.599   5.472 -0.3717  0.4515 -0.1937
  123DOPC   C3116876   7.789   7.719   5.430 -0.2321 -0.1929  0.3437
  123DOPC   O3216877   7.868   7.810   5.454  0.3130  0.7269  0.9828
  123DOPC   C3216878   7.674   7.720   5.323  0.5778 -0.7514  0.0856
  123DOPC   H2X16879   7.641   7.614   5.316 -2.4375  0.1085 -0.0005
  123DOPC   H2Y16880   7.584   7.768   5.366 -0.0620 -0.5144 -1.4753
  123DOPC   C2316881   7.946   7.263   5.201  0.9699 -0.2760  0.0009
  123DOPC   H3R16882   8.028   7.337   5.188 -0.1080  0.8743 -0.3818
  123DOPC   H3S16883   7.850   7.315   5.217  0.1796 -1.8539  0.6220
  123DOPC   C2416884   7.936   7.185   5.067  0.3931 -0.5503 -0.0190
  123DOPC   H4R16885   7.836   7.136   5.061  0.4438 -0.9507  1.6914
  123DOPC   H4S16886   8.011   7.103   5.059  0.8185 -0.1428 -0.2022
  123DOPC   C2516887   7.938   7.287   4.952 -0.1918  0.3606 -0.2498
  123DOPC   H5R16888   8.038   7.326   4.923  0.2375 -1.5063 -1.5451
  123DOPC   H5S16889   7.870   7.366   4.989 -3.6384 -1.1855 -2.6598
  123DOPC   C2616890   7.856   7.238   4.835  0.6126  0.5714 -0.4539
  123DOPC   H6R16891   7.846   7.325   4.766 -0.0038 -1.6188 -3.3115
  123DOPC   H6S16892   7.754   7.222   4.877  0.8893  0.4681  0.2022
  123DOPC   C2716893   7.915   7.122   4.757 -0.1457  0.2240 -0.1709
  123DOPC   H7R16894   7.832   7.064   4.711  0.8970 -0.7963 -0.8242
  123DOPC   H7S16895   7.954   7.052   4.833 -1.3689  2.5587  2.8197
  123DOPC   C2816896   8.013   7.162   4.647 -0.2348  0.0893  0.0634
  123DOPC   H8R16897   8.069   7.069   4.623 -0.6324 -0.4263  1.0787
  123DOPC   H8S16898   8.088   7.236   4.684 -1.3217  0.8603  0.7836
  123DOPC   C2916899   7.935   7.230   4.528  0.2062 -0.7651  0.7467
  123DOPC   H9R16900   7.904   7.331   4.558  1.9630 -0.1201  0.5503
  123DOPC  C21016901   7.882   7.172   4.414 -0.5650 -0.9487 -1.1999
  123DOPC  H10R16902   7.839   7.239   4.338  0.6209  3.1769  1.4234
  123DOPC  C21116903   7.887   7.030   4.372  0.4655 -0.5076 -0.0135
  123DOPC  H11R16904   7.919   6.973   4.462 -1.4118  0.3111  1.2355
  123DOPC  H11S16905   7.961   7.026   4.290 -2.7474  1.7643 -3.3408
  123DOPC  C21216906   7.746   6.976   4.328  0.2172 -0.1412  0.8342
  123DOPC  H12R16907   7.713   7.031   4.237  0.0488 -3.0338 -0.9907
  123DOPC  H12S16908   7.670   6.995   4.406 -1.5006  1.6907 -1.1771
  123DOPC  C21316909   7.753   6.822   4.295 -0.1088 -0.2155 -0.2775
  123DOPC  H13R16910   7.815   6.801   4.205 -1.9655 -0.9685 -1.4387
  123DOPC  H13S16911   7.651   6.790   4.266 -0.6856  1.7893 -0.5977
  123DOPC  C21416912   7.795   6.738   4.421 -0.3653  0.0627 -0.3246
  123DOPC  H14R16913   7.903   6.757   4.440  0.2693 -0.1818 -3.1481
  123DOPC  H14S16914   7.783   6.630   4.398  0.6884  0.3830 -2.7663
  123DOPC  C21516915   7.721   6.771   4.549 -0.9029 -0.3662  0.0331
  123DOPC  H15R16916   7.610   6.769   4.537 -1.0195  0.0021  0.9719
  123DOPC  H15S16917   7.748   6.874   4.579  0.6358 -0.6128 -0.4292
  123DOPC  C21616918   7.751   6.672   4.666  0.3073 -0.4993  0.0756
  123DOPC  H16R16919   7.857   6.679   4.697 -0.2172  2.5260  1.4868
  123DOPC  H16S16920   7.714   6.569   4.645  0.8690 -1.1137  1.8909
  123DOPC  C21716921   7.673   6.722   4.792 -0.0691  0.5444 -0.3937
  123DOPC  H17R16922   7.722   6.816   4.824 -0.7019  0.6324  0.3400
  123DOPC  H17S16923   7.692   6.646   4.871  3.6448 -0.9925 -2.5169
  123DOPC  C21816924   7.526   6.747   4.768  0.5375 -0.7915 -0.1909
  123DOPC  H18R16925   7.467   6.766   4.860  1.2263  2.7552 -0.3547
  123DOPC  H18S16926   7.490   6.653   4.720 -0.0456 -1.5815  1.7121
  123DOPC  H18T16927   7.501   6.842   4.716  2.4114  0.0359  0.3582
  123DOPC   C3316928   7.727   7.764   5.184  0.6514 -0.1249  0.3611
  123DOPC   H3X16929   7.767   7.868   5.181 -0.3850  0.2960 -2.6192
  123DOPC   H3Y16930   7.643   7.764   5.110  0.6290 -0.6844  0.3885
  123DOPC   C3416931   7.827   7.671   5.132 -1.0159  0.3071  0.2726
  123DOPC   H4X16932   7.811   7.564   5.156  4.3010 -1.2154 -1.5501
  123DOPC   H4Y16933   7.929   7.695   5.168 -0.6359 -1.0876  0.1522
  123DOPC   C3516934   7.839   7.684   4.975 -0.2829  0.3496 -0.2708
  123DOPC   H5X16935   7.928   7.627   4.938 -0.7941 -0.5473 -0.1530
  123DOPC   H5Y16936   7.854   7.790   4.947  0.2510  0.3993  0.1853
  123DOPC   C3616937   7.716   7.639   4.887  0.1636 -0.3830 -1.0924
  123DOPC   H6X16938   7.672   7.542   4.917 -0.7746  0.1907 -0.5758
  123DOPC   H6Y16939   7.631   7.707   4.911  1.1218  0.6937 -0.5991
  123DOPC   C3716940   7.740   7.646   4.736 -0.4370  0.4874 -0.0859
  123DOPC   H7X16941   7.764   7.749   4.701  2.4888 -0.9423 -2.7332
  123DOPC   H7Y16942   7.829   7.586   4.709 -1.6350 -1.6294  0.4985
  123DOPC   C3816943   7.631   7.588   4.646 -0.4035 -0.0590 -0.3172
  123DOPC   H8X16944   7.550   7.665   4.642 -0.2536  0.0541 -3.3148
  123DOPC   H8Y16945   7.577   7.506   4.698  0.4642 -0.6836 -0.3935
  123DOPC   C3916946   7.664   7.567   4.501  0.1157 -0.0356  0.8757
  123DOPC   H9X16947   7.692   7.465   4.473 -0.0262  0.1505  0.0113
  123DOPC  C31016948   7.647   7.650   4.395 -0.3506 -0.2943  0.7322
  123DOPC  H10X16949   7.708   7.629   4.306  0.9851  1.2481  1.2198
  123DOPC  C31116950   7.582   7.786   4.411 -0.1518 -0.1350  0.3382
  123DOPC  H11X16951   7.616   7.875   4.354 -0.4660 -0.3332 -0.1627
  123DOPC  H11Y16952   7.580   7.824   4.516 -0.4714 -1.2562  0.7565
  123DOPC  C31216953   7.435   7.778   4.373  0.1347  0.1495  0.4095
  123DOPC  H12X16954   7.394   7.694   4.434  0.1000  0.2045  0.4628
  123DOPC  H12Y16955   7.422   7.749   4.267  1.0237 -0.6464  0.5035
  123DOPC  C31316956   7.356   7.904   4.400 -0.3046  0.4510 -0.3430
  123DOPC  H13X16957   7.377   7.930   4.505 -1.9773 -1.2112  0.4671
  123DOPC  H13Y16958   7.379   7.987   4.329 -2.5053  2.0102  0.6547
  123DOPC  C31416959   7.205   7.883   4.408  0.1770  0.2560  0.1432
  123DOPC  H14X16960   7.178   7.793   4.349  1.0521 -0.7146  1.1680
  123DOPC  H14Y16961   7.169   7.854   4.509 -0.0570 -1.4545 -0.3905
  123DOPC  C31516962   7.117   8.002   4.367  0.5159 -0.2917 -0.5169
  123DOPC  H15X16963   7.013   7.967   4.348  1.2907 -1.4707 -2.8328
  123DOPC  H15Y16964   7.134   8.047   4.267 -0.9620  0.2148 -0.5747
  123DOPC  C31616965   7.099   8.108   4.472 -0.1531  0.3793 -0.3351
  123DOPC  H16X16966   7.074   8.061   4.570 -2.1900 -0.1861 -1.0854
  123DOPC  H16Y16967   7.198   8.158   4.483  0.8352 -1.0616 -2.0556
  123DOPC  C31716968   6.992   8.212   4.428 -0.3404 -0.4310  0.0309
  123DOPC  H17X16969   7.049   8.306   4.440 -0.9458 -0.1464  0.7539
  123DOPC  H17Y16970   6.970   8.204   4.319  1.2232  0.5399 -0.3821
  123DOPC  C31816971   6.866   8.214   4.515  0.0257 -0.4423  0.4549
  123DOPC  H18X16972   6.816   8.115   4.523  0.1763 -0.5905 -0.3684
  123DOPC  H18Y16973   6.893   8.246   4.617 -1.3838 -1.2162  1.1049
  123DOPC  H18Z16974   6.791   8.289   4.480  1.0657  0.0846 -0.7468
  124DOPC     N16975   3.813   6.202   5.987  0.2593 -0.2571  0.6781
  124DOPC   C1216976   3.707   6.113   6.047 -0.0338 -0.3644 -0.5663
  124DOPC  H12A16977   3.612   6.164   6.042  1.7792  3.4879  0.5269
  124DOPC  H12B16978   3.740   6.094   6.148 -1.6694  0.1284  0.0984
  124DOPC   C1316979   3.801   6.321   6.070 -0.2469  0.2365 -0.0443
  124DOPC  H13A16980   3.822   6.297   6.174  1.6296  1.2604 -0.1478
  124DOPC  H13B16981   3.877   6.389   6.035  0.8025 -0.1566  1.3816
  124DOPC  H13C16982   3.702   6.365   6.073 -0.2833  0.1724  2.7193
  124DOPC   C1416983   3.777   6.244   5.850  0.1243  0.0257  0.0018
  124DOPC  H14A16984   3.845   6.317   5.809  0.0856  1.3186  2.1020
  124DOPC  H14B16985   3.756   6.160   5.784  0.1808 -0.0555  0.0871
  124DOPC  H14C16986   3.687   6.304   5.851  0.7031  0.9168  1.5905
  124DOPC   C1516987   3.952   6.152   5.992  0.0197 -0.9851 -0.0968
  124DOPC  H15A16988   3.956   6.102   6.087 -0.9422 -0.9646 -0.0278
  124DOPC  H15B16989   4.020   6.235   5.985  0.7559 -1.6295 -0.9574
  124DOPC  H15C16990   3.977   6.086   5.910  0.6897  0.9510 -1.5130
  124DOPC   C1116991   3.703   5.975   5.977 -0.6842 -0.5224 -0.1068
  124DOPC  H11A16992   3.803   5.933   5.955 -1.3817 -1.5129 -1.6023
  124DOPC  H11B16993   3.650   5.901   6.042  1.3004 -2.2865 -0.3821
  124DOPC     P16994   3.486   5.980   5.831 -0.1194 -0.5795  0.4073
  124DOPC   O1316995   3.438   6.120   5.821 -0.2556  0.3768 -0.4959
  124DOPC   O1416996   3.431   5.893   5.939  0.0389  0.2486 -0.4153
  124DOPC   O1216997   3.642   5.987   5.846 -0.8442 -0.8670 -0.3125
  124DOPC   O1116998   3.465   5.914   5.692 -0.3437  0.9359 -0.8502
  124DOPC    C116999   3.575   5.891   5.595  0.7607 -0.6455 -0.0295
  124DOPC    HA17000   3.540   5.814   5.523  0.6931  1.7171 -2.6692
  124DOPC    HB17001   3.664   5.851   5.647  0.1623 -1.3411  0.4735
  124DOPC    C217002   3.600   6.019   5.502 -0.6189 -0.2727 -0.1818
  124DOPC    HS17003   3.613   6.108   5.567  3.2776 -0.2762 -0.7025
  124DOPC   O2117004   3.492   6.021   5.403  0.6150 -0.3087 -0.2184
  124DOPC   C2117005   3.455   6.142   5.370  0.0490  0.1348 -0.5170
  124DOPC   O2217006   3.498   6.240   5.428  0.3399 -0.2719 -0.4991
  124DOPC   C2217007   3.370   6.139   5.244  0.2258 -0.5726 -0.5717
  124DOPC   H2R17008   3.279   6.080   5.269 -0.6509 -0.4585 -3.2363
  124DOPC   H2S17009   3.426   6.078   5.171  1.3738  0.6429 -0.7447
  124DOPC    C317010   3.738   6.017   5.434 -0.0945 -1.1264  0.0844
  124DOPC    HX17011   3.757   5.928   5.370  3.1622  0.2120 -1.0391
  124DOPC    HY17012   3.819   6.015   5.510  1.6253  0.9383 -1.5629
  124DOPC   O3117013   3.753   6.130   5.342  0.2380 -0.0643 -0.2737
  124DOPC   C3117014   3.830   6.232   5.367 -0.0673  0.1223 -0.1700
  124DOPC   O3217015   3.905   6.245   5.466  0.1532 -0.1697  0.2957
  124DOPC   C3217016   3.796   6.326   5.249 -0.6179 -0.0671  0.6007
  124DOPC   H2X17017   3.810   6.277   5.150  0.2745 -1.6342  1.4784
  124DOPC   H2Y17018   3.691   6.362   5.256 -0.7218 -0.5150  1.3613
  124DOPC   C2317019   3.345   6.279   5.184 -0.0071  0.2210 -0.0377
  124DOPC   H3R17020   3.438   6.330   5.151  1.0360 -0.2089  2.0980
  124DOPC   H3S17021   3.316   6.350   5.264 -0.8292  2.0500 -1.8715
  124DOPC   C2417022   3.249   6.280   5.064 -0.2509  0.7013 -0.1687
  124DOPC   H4R17023   3.166   6.210   5.085 -0.0898 -0.4788 -2.9342
  124DOPC   H4S17024   3.308   6.236   4.980 -1.2697  0.1918 -0.6312
  124DOPC   C2517025   3.210   6.424   5.033 -0.4037 -0.2098 -0.0758
  124DOPC   H5R17026   3.304   6.478   5.053 -0.0683 -0.2055 -1.5815
  124DOPC   H5S17027   3.125   6.463   5.093  0.3262  0.7670  0.3420
  124DOPC   C2617028   3.172   6.432   4.887 -0.4650  1.2291 -0.0897
  124DOPC   H6R17029   3.076   6.379   4.872 -0.5825  0.0512  3.6342
  124DOPC   H6S17030   3.248   6.388   4.818  0.3373  2.4878 -0.0362
  124DOPC   C2717031   3.155   6.579   4.837 -0.6531  0.0408  0.4632
  124DOPC   H7R17032   3.245   6.643   4.849 -0.8589  0.1381  1.5146
  124DOPC   H7S17033   3.078   6.621   4.904 -0.2757  2.0250 -0.2677
  124DOPC   C2817034   3.087   6.578   4.695  0.1800  0.0152 -0.4351
  124DOPC   H8R17035   3.104   6.682   4.658 -3.0681  1.0813  0.6596
  124DOPC   H8S17036   2.977   6.563   4.698  0.1555  0.3328  1.8344
  124DOPC   C2917037   3.157   6.481   4.603  0.0638 -0.3580  0.4264
  124DOPC   H9R17038   3.115   6.380   4.589  1.3320 -0.5141 -3.4598
  124DOPC  C21017039   3.263   6.512   4.530 -0.4657 -0.8437 -0.1596
  124DOPC  H10R17040   3.311   6.432   4.471 -1.3198  0.3090 -2.5387
  124DOPC  C21117041   3.343   6.633   4.526 -0.7640 -0.3020  0.1520
  124DOPC  H11R17042   3.445   6.594   4.502 -0.1700  1.2813 -0.0383
  124DOPC  H11S17043   3.340   6.678   4.627 -0.8484 -0.3404  0.1663
  124DOPC  C21217044   3.300   6.730   4.417  0.2443 -0.2321  0.0696
  124DOPC  H12R17045   3.377   6.809   4.426  0.2815 -0.4881  3.1194
  124DOPC  H12S17046   3.203   6.777   4.445  0.0071 -1.0894  0.7290
  124DOPC  C21317047   3.305   6.670   4.274  0.3837 -0.2333 -0.0160
  124DOPC  H13R17048   3.233   6.586   4.263 -0.8059  0.6317  0.9512
  124DOPC  H13S17049   3.410   6.633   4.271  0.4396 -0.0490 -0.4178
  124DOPC  C21417050   3.277   6.774   4.163 -0.1525 -0.0208 -0.1039
  124DOPC  H14R17051   3.354   6.854   4.169  0.4949 -0.5639 -0.9633
  124DOPC  H14S17052   3.177   6.814   4.188 -0.4188 -0.9063  0.3079
  124DOPC  C21517053   3.290   6.714   4.021  0.3300  0.4823  0.6776
  124DOPC  H15R17054   3.212   6.635   4.014  1.0615 -0.2035  0.1181
  124DOPC  H15S17055   3.385   6.660   4.007  0.7684  1.2446  0.6431
  124DOPC  C21617056   3.253   6.821   3.911 -0.2229  0.3962  0.0499
  124DOPC  H16R17057   3.324   6.905   3.930  0.0929  0.4002 -1.0715
  124DOPC  H16S17058   3.146   6.847   3.920 -0.9087 -2.3806  0.9897
  124DOPC  C21717059   3.282   6.774   3.766 -1.0067 -0.8687  0.1615
  124DOPC  H17R17060   3.194   6.716   3.731  0.0690 -1.3167 -1.9317
  124DOPC  H17S17061   3.380   6.723   3.756 -0.7622 -0.1963 -1.0009
  124DOPC  C21817062   3.271   6.899   3.667  0.4402 -0.1008  0.0031
  124DOPC  H18R17063   3.169   6.943   3.677  0.0258 -0.5788 -1.7800
  124DOPC  H18S17064   3.289   6.863   3.564  1.7090  0.7910 -0.1041
  124DOPC  H18T17065   3.348   6.974   3.697  0.8015 -0.4391 -0.0826
  124DOPC   C3317066   3.889   6.455   5.246  0.0968  0.6304 -1.2163
  124DOPC   H3X17067   3.992   6.442   5.286 -1.0155 -0.0007  1.6817
  124DOPC   H3Y17068   3.846   6.531   5.315  0.6866  1.3603 -1.6269
  124DOPC   C3417069   3.900   6.523   5.107  0.3250  0.3017  0.7218
  124DOPC   H4X17070   3.942   6.624   5.127 -1.3385  0.4568  4.2490
  124DOPC   H4Y17071   3.800   6.543   5.064  1.6366  0.1976 -2.7042
  124DOPC   C3517072   3.980   6.451   5.007  0.2479 -0.3194  0.2660
  124DOPC   H5X17073   3.933   6.353   4.985 -2.0112  0.7442  0.0953
  124DOPC   H5Y17074   4.079   6.424   5.051  0.2339 -0.1577  0.3989
  124DOPC   C3617075   3.996   6.542   4.881 -0.0287 -0.2183 -0.9274
  124DOPC   H6X17076   3.894   6.546   4.837 -0.6365 -0.9856  0.3573
  124DOPC   H6Y17077   4.036   6.642   4.908  1.7644 -1.4184  1.1343
  124DOPC   C3717078   4.091   6.486   4.775  0.0245 -0.4683  0.0898
  124DOPC   H7X17079   4.115   6.572   4.709  1.2606  0.0692  1.2128
  124DOPC   H7Y17080   4.177   6.442   4.829 -0.5595  0.4042  1.7888
  124DOPC   C3817081   4.044   6.369   4.689  0.6586  0.5747  0.3376
  124DOPC   H8X17082   3.945   6.371   4.639  0.0081 -1.7006  1.4081
  124DOPC   H8Y17083   4.033   6.286   4.762 -2.1666  1.0971  0.6271
  124DOPC   C3917084   4.131   6.325   4.574 -0.0804 -0.5774 -0.7189
  124DOPC   H9X17085   4.207   6.253   4.610 -1.9064 -1.7626  0.9411
  124DOPC  C31017086   4.123   6.336   4.442 -0.4182 -0.2392  0.2584
  124DOPC  H10X17087   4.195   6.285   4.377 -0.6497 -1.3245  0.8263
  124DOPC  C31117088   4.017   6.407   4.364  0.5169  0.0611 -0.4874
  124DOPC  H11X17089   3.973   6.478   4.437  0.8744  0.1572 -0.3672
  124DOPC  H11Y17090   3.940   6.330   4.340  0.6982 -0.7288  1.3369
  124DOPC  C31217091   4.071   6.467   4.235  0.2744 -1.0188 -0.8185
  124DOPC  H12X17092   4.152   6.539   4.262 -0.5708 -0.0140 -0.9318
  124DOPC  H12Y17093   3.979   6.522   4.207  1.4595  2.6164  1.7183
  124DOPC  C31317094   4.117   6.377   4.123 -0.4671  0.2194  0.2802
  124DOPC  H13X17095   4.204   6.312   4.146 -0.6146 -0.2477 -0.4652
  124DOPC  H13Y17096   4.029   6.310   4.117 -0.9438  0.8935 -0.5266
  124DOPC  C31417097   4.141   6.456   3.990 -0.9469  0.4431 -0.5960
  124DOPC  H14X17098   4.049   6.507   3.953 -0.0430  1.1686 -1.9463
  124DOPC  H14Y17099   4.221   6.532   3.997  0.9794 -1.4456 -1.1855
  124DOPC  C31517100   4.172   6.363   3.862  0.6571 -0.1053  0.1495
  124DOPC  H15X17101   4.074   6.318   3.835 -1.6343  3.9886  0.7793
  124DOPC  H15Y17102   4.246   6.285   3.889  1.6020  0.7688  0.1184
  124DOPC  C31617103   4.238   6.455   3.753 -0.3838  0.2565  0.1353
  124DOPC  H16X17104   4.173   6.542   3.730 -0.0318  0.5141  0.0965
  124DOPC  H16Y17105   4.326   6.501   3.803 -0.4398 -0.5803  1.0331
  124DOPC  C31717106   4.271   6.382   3.625 -0.2507  0.6915 -0.1060
  124DOPC  H17X17107   4.326   6.449   3.556  0.3036 -2.9058 -3.5173
  124DOPC  H17Y17108   4.341   6.297   3.640 -1.3179 -0.2474 -0.2985
  124DOPC  C31817109   4.143   6.332   3.550  0.2818  0.0435  0.1068
  124DOPC  H18X17110   4.070   6.415   3.552  0.8413  0.6213 -1.6132
  124DOPC  H18Y17111   4.163   6.330   3.440 -1.3697  1.0374 -0.2384
  124DOPC  H18Z17112   4.101   6.238   3.591  0.5882 -0.8346 -1.5034
  125DOPC     N17113   4.247  10.863   5.998  0.3198 -0.5514 -0.6376
  125DOPC   C1217114   4.177  10.996   6.013  0.4144 -0.3316 -0.4851
  125DOPC  H12A17115   4.122  11.016   5.922  0.5084 -0.4798 -0.5743
  125DOPC  H12B17116   4.234  11.088   6.007 -1.8203  1.1730 -0.1803
  125DOPC   C1317117   4.337  10.866   5.880 -0.3576  0.1995 -0.0572
  125DOPC  H13A17118   4.398  10.954   5.895 -0.6589  0.4195 -0.1045
  125DOPC  H13B17119   4.399  10.780   5.862  0.4161  0.1119  2.5607
  125DOPC  H13C17120   4.280  10.890   5.792 -1.1542  0.7364  0.5832
  125DOPC   C1417121   4.144  10.760   5.973  0.3771 -0.2048 -0.1786
  125DOPC  H14A17122   4.071  10.765   6.053 -1.3957 -0.7197 -1.6677
  125DOPC  H14B17123   4.079  10.788   5.891 -0.0952  0.4848  0.4209
  125DOPC  H14C17124   4.182  10.661   5.950  0.8315 -0.3936  1.3138
  125DOPC   C1517125   4.329  10.832   6.116  0.3085  0.9256 -0.6002
  125DOPC  H15A17126   4.267  10.821   6.204  0.8793  0.4382 -0.2498
  125DOPC  H15B17127   4.401  10.909   6.137 -0.3803  0.4540  4.8876
  125DOPC  H15C17128   4.373  10.734   6.102 -0.6816  0.6391 -1.9434
  125DOPC   C1117129   4.086  11.020   6.142  0.1914 -0.4321 -0.3129
  125DOPC  H11A17130   4.009  10.942   6.124 -2.2090  2.0636 -1.6418
  125DOPC  H11B17131   4.138  11.008   6.239  0.0996 -0.6246 -0.2851
  125DOPC     P17132   3.896  11.162   6.026 -0.6496 -0.1813 -0.0502
  125DOPC   O1317133   3.891  11.310   5.996  0.0819 -0.2692  0.2788
  125DOPC   O1417134   3.775  11.099   6.078 -0.3184  0.3067 -0.5882
  125DOPC   O1217135   4.018  11.146   6.126  1.1124 -0.6550  0.8195
  125DOPC   O1117136   3.947  11.080   5.906  0.7515  0.4294 -0.2342
  125DOPC    C117137   3.862  10.999   5.824  0.1978  0.0268 -0.2260
  125DOPC    HA17138   3.776  11.062   5.794  0.4171  0.1022 -0.7152
  125DOPC    HB17139   3.823  10.920   5.892  0.4188 -0.9503 -1.1950
  125DOPC    C217140   3.933  10.932   5.703 -0.4919 -0.2214  0.6450
  125DOPC    HS17141   4.021  10.878   5.745  0.8761  1.4923  0.0991
  125DOPC   O2117142   3.969  11.044   5.618  0.3585 -0.4063  0.4613
  125DOPC   C2117143   4.064  11.010   5.539 -0.2833  0.4076 -0.0473
  125DOPC   O2217144   4.141  10.914   5.551  0.1820 -0.2922 -0.2279
  125DOPC   C2217145   4.094  11.123   5.440 -0.2021 -0.2152 -0.7753
  125DOPC   H2R17146   4.114  11.211   5.506  0.2546 -0.6790 -0.2821
  125DOPC   H2S17147   4.003  11.140   5.379 -0.8782  0.4938  0.3850
  125DOPC    C317148   3.839  10.830   5.634  0.4401 -0.1410  0.3678
  125DOPC    HX17149   3.817  10.744   5.700  0.6830  0.2641  0.9838
  125DOPC    HY17150   3.891  10.789   5.545  0.1695  1.7477 -0.7231
  125DOPC   O3117151   3.711  10.883   5.587 -0.1182 -0.3590 -0.7838
  125DOPC   C3117152   3.702  10.944   5.462 -0.0682  0.3210  0.0972
  125DOPC   O3217153   3.799  10.944   5.382 -0.0226  0.4392 -0.2737
  125DOPC   C3217154   3.565  11.001   5.448  0.2508  0.3490 -0.1248
  125DOPC   H2X17155   3.493  10.926   5.489  3.1256 -1.3102  2.2746
  125DOPC   H2Y17156   3.561  11.094   5.508 -0.3045 -0.2383  0.7731
  125DOPC   C2317157   4.223  11.110   5.345  0.5053  0.6662 -0.2133
  125DOPC   H3R17158   4.212  11.120   5.235  1.0426 -0.1208 -0.3432
  125DOPC   H3S17159   4.268  11.009   5.358 -0.6168  0.1082 -0.5406
  125DOPC   C2417160   4.348  11.198   5.386  0.3854  0.1128 -0.2969
  125DOPC   H4R17161   4.399  11.152   5.473  0.3591  0.0465 -0.3174
  125DOPC   H4S17162   4.322  11.302   5.417 -0.1981 -0.3655  0.8983
  125DOPC   C2517163   4.455  11.215   5.268  0.0198  0.5713 -0.6053
  125DOPC   H5R17164   4.483  11.117   5.222 -0.6624  1.4596 -3.0493
  125DOPC   H5S17165   4.544  11.256   5.321 -1.5806  1.7942  1.2439
  125DOPC   C2617166   4.402  11.304   5.146  0.1917 -0.1397 -0.4211
  125DOPC   H6R17167   4.421  11.411   5.172 -0.6858 -0.4627  1.7649
  125DOPC   H6S17168   4.292  11.293   5.136  0.0982  0.5809 -0.2647
  125DOPC   C2717169   4.462  11.265   5.012  0.5080 -0.0146  0.3057
  125DOPC   H7R17170   4.448  11.157   4.994  0.3946  0.0280  0.1394
  125DOPC   H7S17171   4.573  11.279   5.012  0.8232 -2.0584  2.1512
  125DOPC   C2817172   4.408  11.345   4.887  0.1991 -0.5972  0.5934
  125DOPC   H8R17173   4.475  11.333   4.800 -1.6855  1.5612 -1.2611
  125DOPC   H8S17174   4.419  11.452   4.911 -0.5632 -0.1845 -0.7915
  125DOPC   C2917175   4.269  11.301   4.852 -0.5638  0.1416 -0.4636
  125DOPC   H9R17176   4.222  11.233   4.924  2.6256 -1.5275  0.2172
  125DOPC  C21017177   4.210  11.335   4.737 -0.1343 -0.5618  0.5841
  125DOPC  H10R17178   4.110  11.294   4.716  0.2814 -1.6346  0.6463
  125DOPC  C21117179   4.255  11.420   4.619 -0.1093 -0.1863 -0.4225
  125DOPC  H11R17180   4.364  11.441   4.626 -0.0303 -1.0265  1.6354
  125DOPC  H11S17181   4.194  11.512   4.614  0.0323 -0.1145 -0.8524
  125DOPC  C21217182   4.237  11.355   4.480 -0.4296 -0.5271  0.3659
  125DOPC  H12R17183   4.132  11.325   4.460 -0.2862 -0.0370 -1.2838
  125DOPC  H12S17184   4.287  11.256   4.486  1.1088  0.0326 -1.9252
  125DOPC  C21317185   4.318  11.436   4.372  0.2505 -0.2120 -0.1210
  125DOPC  H13R17186   4.399  11.494   4.422 -0.8124  0.8387  0.4413
  125DOPC  H13S17187   4.254  11.509   4.317 -1.1205 -1.8993 -0.8384
  125DOPC  C21417188   4.384  11.344   4.271  0.3700  0.6139 -0.1418
  125DOPC  H14R17189   4.314  11.280   4.212  0.5763 -0.1290  0.3966
  125DOPC  H14S17190   4.430  11.268   4.338  0.5911  1.3066  0.4986
  125DOPC  C21517191   4.501  11.418   4.207 -0.2800  0.5649  0.2074
  125DOPC  H15R17192   4.564  11.451   4.292  0.9547 -0.3022 -0.3493
  125DOPC  H15S17193   4.470  11.512   4.158 -0.9746 -1.9453 -4.8076
  125DOPC  C21617194   4.580  11.345   4.103  0.3047 -0.2780 -0.4358
  125DOPC  H16R17195   4.650  11.409   4.045  2.3218 -1.9039  0.0938
  125DOPC  H16S17196   4.512  11.307   4.024 -0.5249 -1.4794  0.8026
  125DOPC  C21717197   4.668  11.236   4.157 -0.3902  0.2728 -0.4835
  125DOPC  H17R17198   4.603  11.173   4.221  0.1856 -0.6352 -0.7807
  125DOPC  H17S17199   4.747  11.276   4.224  0.3290 -0.6153 -0.7935
  125DOPC  C21817200   4.751  11.147   4.057 -0.0620 -0.4586 -0.4209
  125DOPC  H18R17201   4.704  11.047   4.043  0.2641 -0.5834 -0.6274
  125DOPC  H18S17202   4.858  11.139   4.083 -0.2338 -2.9682 -0.2912
  125DOPC  H18T17203   4.750  11.196   3.957 -0.7979  2.0819  0.7335
  125DOPC   C3317204   3.536  11.038   5.304 -0.4552  0.5471 -0.1432
  125DOPC   H3X17205   3.517  10.950   5.239 -1.0396 -0.2724  1.0949
  125DOPC   H3Y17206   3.624  11.093   5.264 -0.8347  1.2066 -0.0897
  125DOPC   C3417207   3.417  11.123   5.297 -0.3898  0.5115 -0.2591
  125DOPC   H4X17208   3.419  11.190   5.385  2.3180  1.7978 -1.1801
  125DOPC   H4Y17209   3.322  11.066   5.303  0.0865 -0.2984 -0.3840
  125DOPC   C3517210   3.418  11.207   5.162  0.2431  0.1947 -0.1718
  125DOPC   H5X17211   3.446  11.127   5.090  1.2430  1.7631 -1.5971
  125DOPC   H5Y17212   3.502  11.279   5.172  1.3459 -1.1787  1.0871
  125DOPC   C3617213   3.287  11.262   5.102  0.6636  0.5882  0.0382
  125DOPC   H6X17214   3.211  11.182   5.088  0.9304  0.3527 -0.0726
  125DOPC   H6Y17215   3.252  11.336   5.177 -2.1399  0.7566 -1.2786
  125DOPC   C3717216   3.323  11.333   4.971 -0.1998 -0.0005  0.4393
  125DOPC   H7X17217   3.396  11.414   4.994  2.4186 -2.1044  0.0519
  125DOPC   H7Y17218   3.370  11.253   4.910  0.5669  1.2051 -0.6108
  125DOPC   C3817219   3.202  11.396   4.900 -0.1815  0.5787 -0.4491
  125DOPC   H8X17220   3.249  11.463   4.825  0.4544 -0.4595 -1.0053
  125DOPC   H8Y17221   3.150  11.465   4.970  0.0377  0.0688  0.2301
  125DOPC   C3917222   3.123  11.289   4.838 -0.6750  0.5467  0.0525
  125DOPC   H9X17223   3.067  11.227   4.910 -1.1135  1.5003  0.5613
  125DOPC  C31017224   3.112  11.260   4.709  0.1798 -0.5505  0.7819
  125DOPC  H10X17225   3.035  11.188   4.678 -0.3092  0.0236  0.6581
  125DOPC  C31117226   3.179  11.333   4.596 -0.2836 -0.2422 -0.2613
  125DOPC  H11X17227   3.189  11.441   4.621 -2.8280 -0.1059  0.4073
  125DOPC  H11Y17228   3.121  11.337   4.502  1.8909  3.2411 -1.6520
  125DOPC  C31217229   3.320  11.285   4.554 -0.0866 -0.8597 -0.0596
  125DOPC  H12X17230   3.313  11.191   4.496 -0.5318 -0.8778  0.0224
  125DOPC  H12Y17231   3.386  11.267   4.642 -0.0527  0.2464  0.1620
  125DOPC  C31317232   3.406  11.385   4.461 -0.3787  0.6076 -0.2146
  125DOPC  H13X17233   3.354  11.394   4.363  0.0334 -0.2869 -0.5201
  125DOPC  H13Y17234   3.405  11.481   4.518 -0.8843  0.3830  0.1720
  125DOPC  C31417235   3.556  11.360   4.432  0.1927  0.1713 -0.1881
  125DOPC  H14X17236   3.615  11.350   4.526  2.1990  2.4061 -1.1213
  125DOPC  H14Y17237   3.564  11.260   4.383  1.8448 -0.4115  1.1450
  125DOPC  C31517238   3.618  11.458   4.335 -0.3803 -0.4162  0.6891
  125DOPC  H15X17239   3.598  11.565   4.356 -0.0774  0.0806 -1.2818
  125DOPC  H15Y17240   3.575  11.441   4.234 -1.4405 -0.2595  1.1026
  125DOPC  C31617241   3.771  11.430   4.308 -0.4388 -0.3572 -0.0052
  125DOPC  H16X17242   3.773  11.323   4.279 -0.5183 -0.4040  0.1576
  125DOPC  H16Y17243   3.793  11.496   4.222 -1.3400  1.1802  0.8980
  125DOPC  C31717244   3.861  11.462   4.425 -0.5780 -0.0020  0.2191
  125DOPC  H17X17245   3.835  11.415   4.522 -1.8774 -0.1575 -0.1880
  125DOPC  H17Y17246   3.964  11.426   4.405 -0.6039  0.1397 -0.1666
  125DOPC  C31817247   3.868  11.613   4.459  0.0532 -0.0930  0.6420
  125DOPC  H18X17248   3.919  11.675   4.383 -0.0689  1.9332  2.1306
  125DOPC  H18Y17249   3.766  11.655   4.477  0.0950  0.2791  0.0527
  125DOPC  H18Z17250   3.929  11.630   4.550 -0.2595  1.1045  0.6393
  126DOPC     N17251   6.448   6.974   6.328  0.1434 -0.0027  0.4540
  126DOPC   C1217252   6.413   7.050   6.204  0.1405  0.1750  0.9653
  126DOPC  H12A17253   6.501   7.045   6.143  1.1089 -2.1640  2.4217
  126DOPC  H12B17254   6.400   7.156   6.222 -1.3968  0.4348 -1.3386
  126DOPC   C1317255   6.324   6.956   6.411  0.1819  0.4052 -0.8966
  126DOPC  H13A17256   6.300   7.050   6.458  2.2180 -0.5548  2.3121
  126DOPC  H13B17257   6.239   6.931   6.348  1.3230 -2.0885 -1.5397
  126DOPC  H13C17258   6.339   6.895   6.498  1.2302  1.9553  0.0565
  126DOPC   C1417259   6.555   7.042   6.412 -0.1783  0.7133  0.5776
  126DOPC  H14A17260   6.648   7.054   6.359 -0.5118  0.8176  0.0065
  126DOPC  H14B17261   6.528   7.144   6.431  0.0147  1.4140 -2.4621
  126DOPC  H14C17262   6.579   6.986   6.501 -0.2759  0.0905  0.2262
  126DOPC   C1517263   6.506   6.844   6.310 -0.1093 -0.3805  0.6603
  126DOPC  H15A17264   6.430   6.778   6.270 -0.6075  0.7026 -0.2408
  126DOPC  H15B17265   6.533   6.812   6.409  0.5403 -1.9921  0.0004
  126DOPC  H15C17266   6.598   6.833   6.253 -0.9691  2.6778 -1.5807
  126DOPC   C1117267   6.290   7.002   6.119  0.8737 -0.3957  0.7508
  126DOPC  H11A17268   6.281   7.054   6.021  0.2823 -0.3771  0.8110
  126DOPC  H11B17269   6.316   6.895   6.106 -0.6672 -0.6353 -0.6794
  126DOPC     P17270   6.045   6.906   6.171  0.4833 -0.4088 -0.0956
  126DOPC   O1317271   5.926   6.986   6.131 -0.1610 -0.2203  0.3464
  126DOPC   O1417272   6.034   6.822   6.295 -0.1325 -0.1304 -0.5358
  126DOPC   O1217273   6.164   7.006   6.191 -0.3435 -1.0408  0.0902
  126DOPC   O1117274   6.095   6.813   6.056 -0.0831 -0.0146  0.2221
  126DOPC    C117275   6.008   6.754   5.951  0.0481 -0.2844 -0.4926
  126DOPC    HA17276   5.907   6.799   5.958 -0.1077 -0.8481  1.4453
  126DOPC    HB17277   6.009   6.643   5.953  0.2616 -0.2748  1.6029
  126DOPC    C217278   6.056   6.787   5.809 -0.2424 -0.2750  0.0199
  126DOPC    HS17279   5.977   6.755   5.737 -0.9858  0.9785  0.2394
  126DOPC   O2117280   6.178   6.729   5.773  0.0375  0.2291  0.1755
  126DOPC   C2117281   6.175   6.603   5.739 -0.7472 -0.8348 -0.5474
  126DOPC   O2217282   6.075   6.535   5.738  0.2639 -0.1711  0.2133
  126DOPC   C2217283   6.320   6.561   5.706  0.2133  0.1859 -0.5248
  126DOPC   H2R17284   6.373   6.583   5.802  1.3472  0.7571 -1.2621
  126DOPC   H2S17285   6.379   6.622   5.635  2.2328  0.7559  1.5420
  126DOPC    C317286   6.064   6.940   5.793 -0.3948 -0.4125  0.9293
  126DOPC    HX17287   6.160   6.960   5.845 -1.4555  2.2960  2.0047
  126DOPC    HY17288   5.977   6.988   5.843 -0.8001 -0.7251  0.5332
  126DOPC   O3117289   6.076   6.979   5.652 -0.0978  0.6049 -0.1156
  126DOPC   C3117290   6.143   7.093   5.632 -0.1367  0.5648  0.2131
  126DOPC   O3217291   6.177   7.167   5.722  0.1761 -0.6635 -0.7845
  126DOPC   C3217292   6.148   7.115   5.477 -0.5416  0.2491  0.0914
  126DOPC   H2X17293   6.202   7.210   5.453 -0.2020 -0.3681 -1.8072
  126DOPC   H2Y17294   6.208   7.039   5.424  1.8401  0.6551  2.0348
  126DOPC   C2317295   6.339   6.408   5.668 -0.2747  0.2931  0.4786
  126DOPC   H3R17296   6.295   6.346   5.748  0.6096 -0.4700  0.3913
  126DOPC   H3S17297   6.447   6.383   5.660 -0.7443 -1.5627 -0.6332
  126DOPC   C2417298   6.275   6.375   5.536 -0.2710  0.3897  0.1721
  126DOPC   H4R17299   6.328   6.427   5.454  0.6020 -3.2872 -1.8401
  126DOPC   H4S17300   6.164   6.379   5.527 -0.2624  1.6782  0.5686
  126DOPC   C2517301   6.309   6.230   5.487  0.7067 -0.4734  0.0646
  126DOPC   H5R17302   6.235   6.167   5.540  2.7626 -4.0255 -0.9357
  126DOPC   H5S17303   6.415   6.205   5.507  0.9680  1.3971  1.2986
  126DOPC   C2617304   6.285   6.210   5.335  0.7273 -0.1746  0.0404
  126DOPC   H6R17305   6.326   6.110   5.306 -1.2928 -1.5346  1.5985
  126DOPC   H6S17306   6.358   6.278   5.286 -0.9499  0.1706 -2.1232
  126DOPC   C2717307   6.142   6.237   5.277  0.7507  0.5715  0.2153
  126DOPC   H7R17308   6.132   6.348   5.284  0.8332  0.7972 -2.2618
  126DOPC   H7S17309   6.065   6.188   5.341 -0.9694  0.5548 -1.7560
  126DOPC   C2817310   6.125   6.215   5.123 -0.5525  0.0179  0.1689
  126DOPC   H8R17311   6.214   6.268   5.082  1.0717 -1.7017  1.2803
  126DOPC   H8S17312   6.025   6.257   5.098 -0.0128 -0.2114 -2.8244
  126DOPC   C2917313   6.121   6.068   5.075 -0.7781  0.3078  0.6845
  126DOPC   H9R17314   6.178   6.003   5.143 -0.9093  0.4393  0.9213
  126DOPC  C21017315   6.040   6.011   4.981  0.3555  0.4228 -0.2301
  126DOPC  H10R17316   6.037   5.902   4.973  1.7248  0.4616 -2.2771
  126DOPC  C21117317   5.962   6.089   4.884 -0.0057  0.5845  0.2194
  126DOPC  H11R17318   6.027   6.160   4.828  3.4499 -1.4774  1.2723
  126DOPC  H11S17319   5.894   6.161   4.933  0.4400  1.6375 -0.6815
  126DOPC  C21217320   5.892   5.996   4.793 -0.2207 -0.5065  0.1036
  126DOPC  H12R17321   5.826   5.920   4.842 -1.5396  1.4522  1.5138
  126DOPC  H12S17322   5.956   5.926   4.735  0.1526 -0.4287  0.4200
  126DOPC  C21317323   5.796   6.075   4.698  0.0791  0.8256  0.2057
  126DOPC  H13R17324   5.847   6.123   4.613  2.0164  0.5855  1.1852
  126DOPC  H13S17325   5.749   6.158   4.755  1.1595  1.4302  0.2222
  126DOPC  C21417326   5.698   5.983   4.629  0.3514 -0.1436  0.0803
  126DOPC  H14R17327   5.628   5.953   4.709  0.2054  1.1247  0.4399
  126DOPC  H14S17328   5.750   5.894   4.586 -2.7144 -2.0418  0.0306
  126DOPC  C21517329   5.618   6.061   4.521  0.1287 -0.0685  0.1256
  126DOPC  H15R17330   5.698   6.093   4.451 -1.9977  0.9756 -1.9772
  126DOPC  H15S17331   5.568   6.145   4.574 -0.3237 -0.4244  0.2661
  126DOPC  C21617332   5.521   5.963   4.444 -0.7702  0.2482  0.1712
  126DOPC  H16R17333   5.457   5.925   4.526 -1.6136  0.6138 -0.3068
  126DOPC  H16S17334   5.589   5.890   4.395 -0.7394  1.9356 -2.5422
  126DOPC  C21717335   5.439   6.038   4.337 -0.0196 -0.2950  0.0327
  126DOPC  H17R17336   5.376   6.120   4.377 -2.4668 -2.9424  2.0904
  126DOPC  H17S17337   5.369   5.971   4.281 -1.0436  1.4225 -0.8338
  126DOPC  C21817338   5.525   6.101   4.235  0.1135  0.1078 -0.5874
  126DOPC  H18R17339   5.595   6.028   4.191 -0.0253 -0.6292  0.3886
  126DOPC  H18S17340   5.592   6.179   4.277 -0.2029  0.5516 -0.8966
  126DOPC  H18T17341   5.457   6.146   4.159 -0.4319  1.6078  0.7338
  126DOPC   C3317342   6.013   7.119   5.409 -0.1490  0.0452  0.3423
  126DOPC   H3X17343   5.931   7.166   5.466 -0.0525  2.0426 -1.0467
  126DOPC   H3Y17344   5.985   7.012   5.393 -0.7292  0.5200 -2.3593
  126DOPC   C3417345   6.011   7.179   5.262 -0.0796 -0.0961 -0.7335
  126DOPC   H4X17346   6.037   7.287   5.271 -0.1774 -0.0760 -0.6956
  126DOPC   H4Y17347   5.905   7.177   5.229 -1.1713  1.7334  2.3098
  126DOPC   C3517348   6.119   7.119   5.167 -1.3435  0.1033  0.0981
  126DOPC   H5X17349   6.117   7.008   5.169 -0.7957  0.0979  1.6102
  126DOPC   H5Y17350   6.216   7.154   5.207 -0.7706 -3.0012  1.7817
  126DOPC   C3617351   6.101   7.167   5.021  0.0200  0.7252 -0.3395
  126DOPC   H6X17352   6.093   7.278   5.029 -0.8055  0.5332  3.0973
  126DOPC   H6Y17353   6.190   7.131   4.965 -1.1258 -2.2605 -0.4320
  126DOPC   C3717354   5.970   7.119   4.957  0.4808 -0.3374  0.1655
  126DOPC   H7X17355   5.962   7.008   4.950 -0.3421 -0.3135  0.6135
  126DOPC   H7Y17356   5.896   7.163   5.027  1.2933  1.1021  0.1511
  126DOPC   C3817357   5.951   7.179   4.813  0.2544  0.1858  0.0331
  126DOPC   H8X17358   6.009   7.117   4.741  1.4814 -0.1834  1.2891
  126DOPC   H8Y17359   6.010   7.274   4.809  1.1119 -0.3704 -1.5777
  126DOPC   C3917360   5.812   7.191   4.758  0.8156  0.3306 -0.2150
  126DOPC   H9X17361   5.744   7.272   4.788  0.6692  0.0357  0.2529
  126DOPC  C31017362   5.753   7.108   4.672 -0.0231 -0.2269 -0.6242
  126DOPC  H10X17363   5.647   7.116   4.642 -0.6770 -1.2713  1.2723
  126DOPC  C31117364   5.804   6.972   4.639 -0.5115 -0.0020  0.3180
  126DOPC  H11X17365   5.717   6.903   4.646 -2.2047  2.0738  0.5870
  126DOPC  H11Y17366   5.880   6.947   4.716 -0.6587  0.4851  0.6235
  126DOPC  C31217367   5.869   6.955   4.504 -0.3131  0.1120 -0.3100
  126DOPC  H12X17368   5.926   6.860   4.514  1.5774  1.1801 -0.4685
  126DOPC  H12Y17369   5.946   7.032   4.482 -1.5204  1.1076 -1.1680
  126DOPC  C31317370   5.763   6.950   4.395 -0.5624  0.7049 -0.0563
  126DOPC  H13X17371   5.690   6.869   4.416  1.0265 -0.1539  2.6197
  126DOPC  H13Y17372   5.717   7.050   4.408  2.6447  2.2786  0.1611
  126DOPC  C31417373   5.820   6.945   4.248 -0.6828 -0.3491  0.3822
  126DOPC  H14X17374   5.756   7.013   4.189  1.6792  3.0552  1.4451
  126DOPC  H14Y17375   5.921   6.990   4.259 -0.7197 -0.6160  2.1185
  126DOPC  C31517376   5.822   6.803   4.181 -0.3784  0.1817 -0.4459
  126DOPC  H15X17377   5.720   6.761   4.192 -0.8663  1.7355  1.4457
  126DOPC  H15Y17378   5.901   6.742   4.228 -0.6318 -0.0270 -0.2902
  126DOPC  C31617379   5.852   6.814   4.034 -0.8958 -0.3164  0.5799
  126DOPC  H16X17380   5.788   6.890   3.984 -0.2293 -0.0954  0.0461
  126DOPC  H16Y17381   5.958   6.846   4.024 -0.5860 -1.1416  1.1006
  126DOPC  C31717382   5.839   6.682   3.962 -0.3964 -0.3269  0.8723
  126DOPC  H17X17383   5.872   6.601   4.031 -0.7683 -2.0657 -0.8924
  126DOPC  H17Y17384   5.730   6.676   3.940 -0.4471  0.9938  0.6997
  126DOPC  C31817385   5.931   6.670   3.841  0.6266 -0.7172  0.2533
  126DOPC  H18X17386   5.929   6.571   3.792 -0.5783 -0.3891 -0.3935
  126DOPC  H18Y17387   5.903   6.753   3.773  1.8985 -1.9323 -1.8413
  126DOPC  H18Z17388   6.035   6.695   3.873  0.5006  1.3432 -0.7753
  127DOPC     N17389   4.523   5.798   6.612  0.3086 -0.1119 -0.9185
  127DOPC   C1217390   4.567   5.776   6.475 -0.3978  0.5767  0.5210
  127DOPC  H12A17391   4.576   5.670   6.455 -2.3086  0.7108 -1.3375
  127DOPC  H12B17392   4.667   5.812   6.457 -1.0143  2.1257  0.0574
  127DOPC   C1317393   4.393   5.736   6.642 -0.5045 -0.0252  0.2339
  127DOPC  H13A17394   4.322   5.785   6.577 -0.9125  0.7605  1.2495
  127DOPC  H13B17395   4.398   5.628   6.645  0.4176 -0.1474 -2.6303
  127DOPC  H13C17396   4.360   5.754   6.743 -1.7824 -1.4974  0.1295
  127DOPC   C1417397   4.517   5.945   6.634  0.0220 -0.4554 -0.3068
  127DOPC  H14A17398   4.440   5.984   6.568  1.3461  0.8921 -1.1211
  127DOPC  H14B17399   4.499   5.971   6.737  0.9603  0.5969 -0.3902
  127DOPC  H14C17400   4.606   5.992   6.596 -0.3693 -0.9654 -1.9185
  127DOPC   C1517401   4.639   5.754   6.703 -0.3466  0.4871  0.3092
  127DOPC  H15A17402   4.656   5.647   6.696  0.9036  0.7094 -0.4932
  127DOPC  H15B17403   4.608   5.780   6.803 -0.4934  1.2751  0.0636
  127DOPC  H15C17404   4.731   5.798   6.665  0.6900 -2.4500 -0.8836
  127DOPC   C1117405   4.482   5.828   6.362  0.2175 -0.3047  0.7733
  127DOPC  H11A17406   4.471   5.939   6.371 -2.4601 -0.2073 -2.0148
  127DOPC  H11B17407   4.528   5.809   6.263 -3.0018  1.0777 -1.1815
  127DOPC     P17408   4.283   5.669   6.267 -0.6622 -0.3414  0.0289
  127DOPC   O1317409   4.147   5.702   6.250 -0.4635  0.7488 -0.5265
  127DOPC   O1417410   4.317   5.529   6.312 -0.8353 -0.3455 -0.2632
  127DOPC   O1217411   4.346   5.774   6.367 -0.5514  0.1542 -0.5321
  127DOPC   O1117412   4.360   5.691   6.127  0.1574  0.3238  0.3801
  127DOPC    C117413   4.339   5.599   6.019  0.2089  0.3170 -1.1543
  127DOPC    HA17414   4.287   5.656   5.939 -0.5497 -0.5671 -1.3161
  127DOPC    HB17415   4.273   5.513   6.046  0.5844 -0.2348 -1.9373
  127DOPC    C217416   4.474   5.556   5.969 -0.2152  0.4103  0.4466
  127DOPC    HS17417   4.543   5.523   6.049 -0.3003  0.6381  0.6148
  127DOPC   O2117418   4.534   5.668   5.909 -0.1301 -0.4214  0.1658
  127DOPC   C2117419   4.663   5.664   5.889  0.0190  0.0664 -0.5100
  127DOPC   O2217420   4.742   5.580   5.934  0.2542  0.2173 -0.1852
  127DOPC   C2217421   4.707   5.787   5.804  0.0675  0.3918  0.0576
  127DOPC   H2R17422   4.697   5.881   5.861 -0.1188 -0.7913  2.0549
  127DOPC   H2S17423   4.632   5.790   5.722 -0.4753  2.4704  0.5773
  127DOPC    C317424   4.458   5.446   5.860 -0.8877 -0.0334 -0.7699
  127DOPC    HX17425   4.419   5.356   5.910  1.8202  0.0061  1.7177
  127DOPC    HY17426   4.560   5.415   5.827 -0.4166 -1.0344  1.4651
  127DOPC   O3117427   4.375   5.483   5.743 -0.6369  0.4995 -0.1292
  127DOPC   C3117428   4.443   5.525   5.631 -0.6266  0.2886 -0.4343
  127DOPC   O3217429   4.569   5.529   5.628  0.4249 -0.1873  0.1114
  127DOPC   C3217430   4.341   5.561   5.521 -0.0501 -0.8224  1.3951
  127DOPC   H2X17431   4.393   5.533   5.427 -1.0888 -1.0233  0.8755
  127DOPC   H2Y17432   4.242   5.511   5.528 -1.0412  0.7478 -0.6153
  127DOPC   C2317433   4.850   5.765   5.739 -0.2378  0.1798 -0.7431
  127DOPC   H3R17434   4.851   5.686   5.661  0.7408  1.3446 -1.9467
  127DOPC   H3S17435   4.918   5.738   5.823 -0.0555  0.3678 -0.8301
  127DOPC   C2417436   4.901   5.894   5.687 -0.2661 -0.4843  0.2714
  127DOPC   H4R17437   4.995   5.878   5.630  0.4823  0.8096  1.1033
  127DOPC   H4S17438   4.927   5.958   5.774 -0.3672 -1.3243  0.9435
  127DOPC   C2517439   4.802   5.974   5.590 -0.8709  0.0219  0.9312
  127DOPC   H5R17440   4.845   6.069   5.552 -0.6312 -0.3910  0.1398
  127DOPC   H5S17441   4.707   5.998   5.643 -1.6707  2.4694 -1.3888
  127DOPC   C2617442   4.759   5.900   5.457  0.4526 -0.4808 -0.3506
  127DOPC   H6R17443   4.717   5.804   5.494  2.4894 -0.1522  3.2577
  127DOPC   H6S17444   4.847   5.889   5.389  2.1164  1.9175  1.2712
  127DOPC   C2717445   4.643   5.987   5.390 -0.0653 -0.7828 -0.1033
  127DOPC   H7R17446   4.570   6.011   5.470  2.0561  1.2590  1.3692
  127DOPC   H7S17447   4.600   5.948   5.295 -0.4006  3.1753 -1.7563
  127DOPC   C2817448   4.687   6.134   5.337 -0.4134  0.4470  0.6305
  127DOPC   H8R17449   4.604   6.162   5.269 -1.1932 -0.2697  1.2750
  127DOPC   H8S17450   4.778   6.113   5.277 -1.2577 -2.3865  0.2070
  127DOPC   C2917451   4.711   6.248   5.432 -0.8109 -0.6498  0.9332
  127DOPC   H9R17452   4.643   6.251   5.518 -1.0519  1.5031  0.7365
  127DOPC  C21017453   4.783   6.361   5.400  0.0131  0.3659 -0.7691
  127DOPC  H10R17454   4.778   6.442   5.473 -0.4980  0.9504 -1.4387
  127DOPC  C21117455   4.862   6.381   5.275  0.3065 -0.1107  0.8338
  127DOPC  H11R17456   4.829   6.469   5.214  0.0850 -1.1739 -0.6382
  127DOPC  H11S17457   4.837   6.301   5.202 -1.9075  0.1539  1.2207
  127DOPC  C21217458   5.006   6.400   5.306 -0.3178  0.4380  0.6008
  127DOPC  H12R17459   5.027   6.492   5.365  2.0337 -0.0128  0.5389
  127DOPC  H12S17460   5.071   6.393   5.216  0.8920  1.7989  1.3293
  127DOPC  C21317461   5.069   6.286   5.384  0.0234 -0.2740 -0.3131
  127DOPC  H13R17462   5.056   6.281   5.495  0.6083 -3.0226 -0.2843
  127DOPC  H13S17463   5.177   6.309   5.370 -0.1347  2.8012  2.3515
  127DOPC  C21417464   5.044   6.145   5.325  0.1622 -0.1308  0.2783
  127DOPC  H14R17465   5.042   6.146   5.214 -2.2465  0.2710  0.2772
  127DOPC  H14S17466   4.943   6.105   5.348 -0.4707  0.2622 -1.6390
  127DOPC  C21517467   5.152   6.042   5.374  0.2945 -0.1651  0.2350
  127DOPC  H15R17468   5.144   6.018   5.482 -1.0322 -0.9972 -0.0253
  127DOPC  H15S17469   5.244   6.091   5.335 -0.4433  0.4343 -0.7964
  127DOPC  C21617470   5.142   5.900   5.299 -0.6694  0.0587 -0.1361
  127DOPC  H16R17471   5.115   5.917   5.192  0.1422 -0.3371 -0.4143
  127DOPC  H16S17472   5.055   5.843   5.338 -0.7994  0.0224 -0.4756
  127DOPC  C21717473   5.278   5.829   5.316 -0.1100 -0.3839 -0.6808
  127DOPC  H17R17474   5.308   5.863   5.417 -2.3348 -1.3530  0.3762
  127DOPC  H17S17475   5.348   5.876   5.243  0.1983  0.3943  0.0941
  127DOPC  C21817476   5.278   5.679   5.304  0.3753  0.6533  0.3628
  127DOPC  H18R17477   5.382   5.642   5.294  0.0101  0.2766 -3.3249
  127DOPC  H18S17478   5.243   5.638   5.207  0.0097 -0.2863  0.8884
  127DOPC  H18T17479   5.218   5.631   5.384 -0.0728  1.8555  0.7739
  127DOPC   C3317480   4.315   5.714   5.516 -0.7499  0.0967 -0.8285
  127DOPC   H3X17481   4.415   5.763   5.520 -0.8087  0.3594 -2.2295
  127DOPC   H3Y17482   4.267   5.748   5.610 -0.0882 -1.8011  0.2500
  127DOPC   C3417483   4.253   5.765   5.386  0.0189 -0.5646  0.6880
  127DOPC   H4X17484   4.150   5.725   5.379 -0.2710  0.1631  0.7441
  127DOPC   H4Y17485   4.298   5.740   5.287 -1.3844 -0.0303 -0.1165
  127DOPC   C3517486   4.235   5.924   5.377 -0.4266  0.1135  0.0923
  127DOPC   H5X17487   4.333   5.977   5.389 -0.4182  0.2451 -0.5498
  127DOPC   H5Y17488   4.175   5.954   5.466 -0.7647  0.3856 -0.2230
  127DOPC   C3617489   4.175   5.972   5.245 -0.6404 -0.5134  0.7707
  127DOPC   H6X17490   4.073   5.929   5.231 -0.6979 -0.0671 -0.3228
  127DOPC   H6Y17491   4.160   6.080   5.266  0.4829 -0.3024  0.5565
  127DOPC   C3717492   4.252   5.941   5.115 -0.2636 -0.0452 -0.7663
  127DOPC   H7X17493   4.353   5.985   5.128  0.1576 -1.4207  1.2120
  127DOPC   H7Y17494   4.277   5.835   5.092 -0.8026 -0.0414 -1.3852
  127DOPC   C3817495   4.171   6.015   4.998 -0.2950  0.5543 -0.5197
  127DOPC   H8X17496   4.156   6.121   5.028  0.4549  0.2081  1.2208
  127DOPC   H8Y17497   4.070   5.968   4.996  0.2849 -0.8100  0.3795
  127DOPC   C3917498   4.255   6.000   4.879 -1.1089  0.1104 -0.6210
  127DOPC   H9X17499   4.358   6.035   4.895 -1.3969  0.7209 -0.0212
  127DOPC  C31017500   4.228   5.956   4.761  0.1782  0.4768  0.4302
  127DOPC  H10X17501   4.303   5.971   4.681 -0.5601  1.6967 -0.0621
  127DOPC  C31117502   4.098   5.899   4.713  0.7487 -0.2852  0.4829
  127DOPC  H11X17503   4.052   5.971   4.643 -1.8445 -0.0627  2.2852
  127DOPC  H11Y17504   4.033   5.893   4.803  0.5376  0.6515  0.3967
  127DOPC  C31217505   4.109   5.751   4.666  0.0643 -0.5138  0.7433
  127DOPC  H12X17506   4.139   5.691   4.755 -0.1094 -1.0030  0.4783
  127DOPC  H12Y17507   4.186   5.763   4.588  0.5826  2.0968  1.5437
  127DOPC  C31317508   3.980   5.702   4.602  0.0075  0.3995  0.1299
  127DOPC  H13X17509   3.882   5.734   4.643 -0.3560  0.3241 -0.6523
  127DOPC  H13Y17510   3.974   5.750   4.502 -1.5939 -2.7730 -1.4773
  127DOPC  C31417511   3.984   5.556   4.570 -0.2783  0.2315  0.0214
  127DOPC  H14X17512   3.942   5.526   4.471  1.1490 -2.7164  0.2009
  127DOPC  H14Y17513   4.089   5.519   4.577  0.9998  3.5379  0.0177
  127DOPC  C31517514   3.907   5.484   4.687 -0.3534  0.5782 -0.2141
  127DOPC  H15X17515   3.797   5.500   4.680 -0.6813 -1.8225 -2.0181
  127DOPC  H15Y17516   3.946   5.537   4.776 -1.7729  1.3751 -0.0368
  127DOPC  C31617517   3.952   5.342   4.722 -0.3886 -0.5709  0.5316
  127DOPC  H16X17518   3.916   5.274   4.642  0.6314 -0.3171 -0.1557
  127DOPC  H16Y17519   4.061   5.343   4.704 -0.3208  2.0363  0.6986
  127DOPC  C31717520   3.908   5.282   4.853  0.2915  0.0539 -0.7348
  127DOPC  H17X17521   3.928   5.359   4.930  1.1313 -2.1235  1.3601
  127DOPC  H17Y17522   3.798   5.277   4.836  0.3862  0.1362 -1.4062
  127DOPC  C31817523   3.960   5.146   4.881 -0.1556  0.1816 -0.2742
  127DOPC  H18X17524   3.899   5.065   4.835  1.3880 -2.1791  1.6076
  127DOPC  H18Y17525   4.064   5.124   4.848 -0.1647 -0.6241  0.1975
  127DOPC  H18Z17526   3.956   5.139   4.992 -0.9511  2.7937 -0.0731
  128DOPC     N17527   6.354   1.105   6.243  0.5681  0.4397  0.0270
  128DOPC   C1217528   6.278   1.226   6.287 -0.1916 -0.3689  0.2238
  128DOPC  H12A17529   6.235   1.211   6.385  1.3936 -2.8660  0.6320
  128DOPC  H12B17530   6.201   1.242   6.214  1.1769 -0.0970 -1.2157
  128DOPC   C1317531   6.415   1.129   6.109  0.7632 -0.6583 -0.8347
  128DOPC  H13A17532   6.335   1.134   6.037 -2.3891  0.1685  2.3981
  128DOPC  H13B17533   6.472   1.220   6.102 -1.2494  0.7527  0.2671
  128DOPC  H13C17534   6.486   1.050   6.087  0.4507 -0.8641 -1.1099
  128DOPC   C1417535   6.254   0.987   6.242 -0.3563 -0.0486  0.4309
  128DOPC  H14A17536   6.192   1.004   6.156  0.6742 -0.9459 -0.5301
  128DOPC  H14B17537   6.300   0.891   6.223 -1.1952 -0.2970 -0.4590
  128DOPC  H14C17538   6.211   0.985   6.341  1.2285 -2.0641  1.1579
  128DOPC   C1517539   6.461   1.077   6.338 -0.5676 -0.2789 -0.4691
  128DOPC  H15A17540   6.522   0.995   6.301  0.6821  0.3805  0.0678
  128DOPC  H15B17541   6.423   1.055   6.437  1.4556 -1.9710  0.0197
  128DOPC  H15C17542   6.524   1.164   6.347 -1.7348  0.6194 -0.8037
  128DOPC   C1117543   6.366   1.355   6.294 -0.1503 -0.2230  0.9330
  128DOPC  H11A17544   6.412   1.360   6.193 -0.8673 -0.7584  0.5719
  128DOPC  H11B17545   6.296   1.440   6.307 -1.0378 -0.7483 -0.2014
  128DOPC     P17546   6.584   1.466   6.376 -0.5604 -0.0596  0.2913
  128DOPC   O1317547   6.683   1.459   6.485 -0.4768  0.3098 -0.1457
  128DOPC   O1417548   6.519   1.597   6.357 -0.4397  0.3085  0.0879
  128DOPC   O1217549   6.469   1.351   6.391  0.3126 -0.1846 -0.3452
  128DOPC   O1117550   6.654   1.423   6.243 -0.0817 -1.0610 -0.2847
  128DOPC    C117551   6.786   1.466   6.224 -0.0943  0.1121  0.4440
  128DOPC    HA17552   6.856   1.405   6.285 -0.5492 -0.8492  0.0282
  128DOPC    HB17553   6.816   1.569   6.252  1.0056 -0.7048  2.4513
  128DOPC    C217554   6.828   1.446   6.074  0.4466  0.2457  0.7840
  128DOPC    HS17555   6.938   1.459   6.066  0.2575  1.1903 -0.5974
  128DOPC   O2117556   6.748   1.533   5.991 -0.1825 -0.1047  0.2504
  128DOPC   C2117557   6.797   1.656   5.988  0.2479  0.3113  0.4883
  128DOPC   O2217558   6.905   1.691   6.036 -0.2583  0.4929 -0.2444
  128DOPC   C2217559   6.692   1.744   5.926 -0.8883 -0.3054 -0.3130
  128DOPC   H2R17560   6.708   1.852   5.950  0.0109  0.1031 -2.5500
  128DOPC   H2S17561   6.589   1.718   5.961  0.1835 -1.9438  1.8812
  128DOPC    C317562   6.798   1.300   6.033  0.1843  0.0162  0.3261
  128DOPC    HX17563   6.695   1.263   6.048 -0.1014 -0.1837 -1.8394
  128DOPC    HY17564   6.870   1.234   6.088  1.0463  0.2708 -0.4647
  128DOPC   O3117565   6.833   1.273   5.900  0.3034 -0.0931  0.2784
  128DOPC   C3117566   6.771   1.171   5.837 -0.1685  0.2584  0.1813
  128DOPC   O3217567   6.696   1.091   5.890  0.0314 -0.0182  0.7463
  128DOPC   C3217568   6.803   1.171   5.684 -0.3922  0.0041  0.3380
  128DOPC   H2X17569   6.817   1.277   5.655  0.3397  1.0301  3.9828
  128DOPC   H2Y17570   6.900   1.118   5.682  1.2312  2.8483 -0.7401
  128DOPC   C2317571   6.691   1.731   5.769 -0.8434  0.8285 -0.1906
  128DOPC   H3R17572   6.795   1.741   5.730 -0.4396  0.0317  0.6326
  128DOPC   H3S17573   6.630   1.817   5.736 -1.8141 -0.3055 -1.4287
  128DOPC   C2417574   6.616   1.616   5.710 -0.3947 -0.2199 -0.0170
  128DOPC   H4R17575   6.510   1.602   5.741 -0.2130  0.3167  0.8810
  128DOPC   H4S17576   6.672   1.527   5.745  2.2960  0.0536 -3.1364
  128DOPC   C2517577   6.628   1.611   5.555  0.0087 -0.0464  0.6391
  128DOPC   H5R17578   6.608   1.505   5.526 -0.9596  0.4694 -0.6484
  128DOPC   H5S17579   6.726   1.644   5.515 -1.3506 -0.2975 -3.3683
  128DOPC   C2617580   6.519   1.697   5.479 -0.2018 -0.5897  0.5949
  128DOPC   H6R17581   6.544   1.804   5.493 -1.2486 -0.0623 -1.2424
  128DOPC   H6S17582   6.417   1.682   5.521 -1.7830 -0.9507 -3.0316
  128DOPC   C2717583   6.508   1.683   5.329  0.1648  0.3744 -0.5380
  128DOPC   H7R17584   6.608   1.687   5.282  0.0531 -1.8334 -1.1182
  128DOPC   H7S17585   6.437   1.764   5.301 -1.0934  0.1461  1.7537
  128DOPC   C2817586   6.463   1.541   5.286 -0.6385  0.2425  0.5303
  128DOPC   H8R17587   6.522   1.457   5.329  2.6463  1.9353 -0.3267
  128DOPC   H8S17588   6.489   1.540   5.178  1.5786 -0.4350  1.0050
  128DOPC   C2917589   6.315   1.537   5.316  0.6154  0.1029  0.4415
  128DOPC   H9R17590   6.285   1.515   5.420 -3.5070 -2.5031 -1.0448
  128DOPC  C21017591   6.215   1.539   5.220  0.0074 -0.1846  0.4240
  128DOPC  H10R17592   6.109   1.544   5.247 -0.2531  1.5019 -0.7349
  128DOPC  C21117593   6.243   1.548   5.071  0.3768 -0.1613 -0.3213
  128DOPC  H11R17594   6.245   1.439   5.049 -0.9307 -0.3965  0.5507
  128DOPC  H11S17595   6.341   1.591   5.042  1.3886 -2.8892 -1.3478
  128DOPC  C21217596   6.134   1.629   4.986 -0.5799  0.0235 -0.5884
  128DOPC  H12R17597   6.134   1.739   5.001  0.4215 -0.1603  0.9343
  128DOPC  H12S17598   6.035   1.595   5.024  0.1039  1.4215  2.8181
  128DOPC  C21317599   6.135   1.593   4.830  0.0577  0.1828 -0.7144
  128DOPC  H13R17600   6.236   1.621   4.794  0.8657 -2.4229 -0.6488
  128DOPC  H13S17601   6.064   1.664   4.781 -1.3053 -0.0043  0.9020
  128DOPC  C21417602   6.103   1.448   4.795 -0.3441 -0.2164 -0.1591
  128DOPC  H14R17603   6.007   1.428   4.848  0.0992  1.6509  1.4759
  128DOPC  H14S17604   6.178   1.372   4.823 -0.8349 -1.3668 -1.8065
  128DOPC  C21517605   6.082   1.425   4.646 -0.6940 -0.0066  0.1356
  128DOPC  H15R17606   6.183   1.431   4.600 -0.9935 -1.8453 -0.8512
  128DOPC  H15S17607   6.014   1.499   4.599  1.5867  0.8600 -2.0023
  128DOPC  C21617608   6.046   1.283   4.607 -0.0180  0.1370  0.0004
  128DOPC  H16R17609   5.943   1.260   4.644  0.9521 -0.5277  2.4710
  128DOPC  H16S17610   6.111   1.212   4.662 -0.6581  1.0118  1.9556
  128DOPC  C21717611   6.058   1.262   4.452  0.5622  0.4763 -0.6800
  128DOPC  H17R17612   6.077   1.155   4.427 -1.3926  0.1092 -0.7233
  128DOPC  H17S17613   6.149   1.309   4.409  1.0748 -0.2072 -0.3641
  128DOPC  C21817614   5.937   1.331   4.387 -0.2941  0.6473  0.4269
  128DOPC  H18R17615   5.950   1.319   4.277 -0.1277  0.8664  0.4216
  128DOPC  H18S17616   5.932   1.439   4.410  1.1785  0.2699  2.8913
  128DOPC  H18T17617   5.841   1.282   4.414 -0.2372  0.5099  0.3792
  128DOPC   C3317618   6.705   1.096   5.598  0.0548  0.0209  0.0667
  128DOPC   H3X17619   6.602   1.130   5.622  0.2661 -0.0254  1.0718
  128DOPC   H3Y17620   6.711   0.991   5.635 -1.7236  0.0546  0.5622
  128DOPC   C3417621   6.731   1.116   5.450 -0.0006 -0.2494  0.2357
  128DOPC   H4X17622   6.830   1.067   5.433  1.3881  2.4724 -0.1863
  128DOPC   H4Y17623   6.734   1.220   5.409  1.6356 -1.3693 -2.8437
  128DOPC   C3517624   6.618   1.067   5.365 -0.9453  0.2963  0.3088
  128DOPC   H5X17625   6.516   1.107   5.383 -0.8260  1.7491 -1.7473
  128DOPC   H5Y17626   6.607   0.958   5.378 -2.8089  0.6188  1.7818
  128DOPC   C3617627   6.653   1.081   5.212  0.6647 -0.4295 -1.2239
  128DOPC   H6X17628   6.678   1.189   5.197  0.4359  0.1323  1.8127
  128DOPC   H6Y17629   6.746   1.025   5.190  0.0745 -1.3503 -1.4045
  128DOPC   C3717630   6.547   1.023   5.118 -0.3406  0.4279  0.7388
  128DOPC   H7X17631   6.506   0.926   5.153 -0.4956  0.1914 -0.0841
  128DOPC   H7Y17632   6.465   1.098   5.114 -1.9326 -1.2459  0.6247
  128DOPC   C3817633   6.600   1.011   4.975 -0.6949 -0.0034 -0.1191
  128DOPC   H8X17634   6.654   1.101   4.940  0.4035 -1.1286 -1.4593
  128DOPC   H8Y17635   6.513   1.008   4.906  1.2837  1.2094 -2.8866
  128DOPC   C3917636   6.681   0.885   4.959 -0.0919  0.5417  0.1787
  128DOPC   H9X17637   6.660   0.813   5.039 -0.4331 -0.5384 -0.8541
  128DOPC  C31017638   6.740   0.843   4.847 -0.2758  0.8699 -0.4141
  128DOPC  H10X17639   6.804   0.754   4.850  0.4532  1.4045  1.9891
  128DOPC  C31117640   6.731   0.923   4.716 -0.5444  0.1150  0.0061
  128DOPC  H11X17641   6.749   1.032   4.721 -0.2889  0.1295 -0.9907
  128DOPC  H11Y17642   6.633   0.906   4.668 -0.3758 -0.9699  0.0105
  128DOPC  C31217643   6.841   0.862   4.621 -0.1801 -0.2103  0.5465
  128DOPC  H12X17644   6.833   0.751   4.620  1.8300 -0.4547 -2.1970
  128DOPC  H12Y17645   6.947   0.885   4.645 -0.0305  2.4047 -1.9625
  128DOPC  C31317646   6.819   0.912   4.473  0.2054 -0.4027  0.1916
  128DOPC  H13X17647   6.718   0.881   4.438 -0.1786  0.8100  0.1775
  128DOPC  H13Y17648   6.819   1.024   4.475 -2.0239 -0.3379 -0.4483
  128DOPC  C31417649   6.931   0.854   4.380  0.6293  0.0546 -0.9412
  128DOPC  H14X17650   7.030   0.859   4.431  0.1214  0.2533  0.0560
  128DOPC  H14Y17651   6.911   0.745   4.376  2.6116 -0.5899  2.4607
  128DOPC  C31517652   6.941   0.911   4.241 -0.3907 -0.1509 -0.0853
  128DOPC  H15X17653   6.995   1.007   4.258 -0.1110  0.0246 -1.7658
  128DOPC  H15Y17654   6.840   0.924   4.197 -0.3513  1.3584  0.1970
  128DOPC  C31617655   7.024   0.832   4.144  0.6614 -0.3909  0.7907
  128DOPC  H16X17656   7.127   0.818   4.185  0.4739 -1.4102  0.9552
  128DOPC  H16Y17657   6.975   0.732   4.139 -0.1397  0.0347 -0.1035
  128DOPC  C31717658   7.021   0.885   4.000  0.8476  0.0918  0.0105
  128DOPC  H17X17659   7.054   0.991   4.013 -0.6957  0.8092 -1.5782
  128DOPC  H17Y17660   7.099   0.834   3.940  0.1679 -0.0843 -0.7382
  128DOPC  C31817661   6.888   0.887   3.927  0.3407  0.1907  0.1620
  128DOPC  H18X17662   6.847   0.786   3.903 -0.9138  0.9872 -1.1819
  128DOPC  H18Y17663   6.818   0.957   3.977  1.4677  1.8515 -0.4971
  128DOPC  H18Z17664   6.896   0.936   3.828 -2.8091  3.2627  1.2136
  129DOPC     N17665  11.051   8.889   6.576 -0.3430  0.7050  0.2715
  129DOPC   C1217666  11.101   8.844   6.436  0.1120  0.1082 -0.3335
  129DOPC  H12A17667  11.033   8.768   6.402 -1.6232  1.2979  0.3364
  129DOPC  H12B17668  11.193   8.790   6.454 -1.2437 -1.5120  2.2533
  129DOPC   C1317669  11.107   9.017   6.615 -0.0870  0.3387  0.0129
  129DOPC  H13A17670  11.073   9.043   6.714 -0.9294  0.9732 -0.4210
  129DOPC  H13B17671  11.213   9.016   6.595 -0.3155 -0.5374 -1.2408
  129DOPC  H13C17672  11.064   9.092   6.550  0.9223  0.8121 -0.1244
  129DOPC   C1417673  11.101   8.784   6.681 -0.0275 -0.4440 -0.0978
  129DOPC  H14A17674  11.041   8.695   6.668 -1.7341  0.6183  0.1394
  129DOPC  H14B17675  11.205   8.762   6.666 -0.4929 -0.8133 -3.6785
  129DOPC  H14C17676  11.079   8.815   6.782 -0.4521  1.8398 -0.8360
  129DOPC   C1517677  10.899   8.887   6.566 -0.1564 -0.4931 -0.6466
  129DOPC  H15A17678  10.862   8.923   6.471 -0.8701  1.6691  0.3653
  129DOPC  H15B17679  10.855   8.932   6.654  2.1670 -0.0558  0.3790
  129DOPC  H15C17680  10.874   8.783   6.579 -0.1185 -0.2944  1.2961
  129DOPC   C1117681  11.117   8.960   6.329 -0.6542 -0.5938 -0.1363
  129DOPC  H11A17682  11.187   9.028   6.383 -0.1794 -1.4597  0.3570
  129DOPC  H11B17683  11.174   8.928   6.240  0.0802 -1.4822  0.6342
  129DOPC     P17684  10.919   9.002   6.164 -0.4310 -0.0415  0.2296
  129DOPC   O1317685  10.839   9.127   6.137 -0.2720 -0.0278 -0.1281
  129DOPC   O1417686  10.851   8.869   6.170  0.7127  0.4706 -0.1562
  129DOPC   O1217687  10.992   9.026   6.295  0.3720  0.5027  0.0391
  129DOPC   O1117688  11.032   8.979   6.056  0.3205  0.6736  0.3846
  129DOPC    C117689  11.064   9.077   5.954  0.2177 -0.2973  0.1712
  129DOPC    HA17690  11.175   9.075   5.942  0.4789 -0.2757  2.2795
  129DOPC    HB17691  11.039   9.183   5.975 -0.0288 -0.2508 -0.3363
  129DOPC    C217692  11.005   9.060   5.820 -0.2551 -0.6921 -0.6671
  129DOPC    HS17693  10.899   9.030   5.838 -0.7621  2.0788  1.8347
  129DOPC   O2117694  11.086   8.957   5.758 -0.1265 -0.0486 -0.4970
  129DOPC   C2117695  11.024   8.901   5.650 -0.2150 -0.6732 -0.1136
  129DOPC   O2217696  10.920   8.942   5.604 -0.3846  0.5989 -0.4192
  129DOPC   C2217697  11.106   8.791   5.583  0.1559 -0.2600 -0.3417
  129DOPC   H2R17698  11.117   8.719   5.667 -0.8340  1.9785  1.8299
  129DOPC   H2S17699  11.203   8.841   5.562 -0.5374  1.6873  0.7474
  129DOPC    C317700  11.006   9.203   5.739 -0.2348  0.6760  0.2856
  129DOPC    HX17701  10.937   9.272   5.792 -1.1959 -1.2746  1.7573
  129DOPC    HY17702  10.972   9.181   5.636  2.2379  0.8867 -0.6251
  129DOPC   O3117703  11.133   9.257   5.747  0.4878  0.2519 -0.0894
  129DOPC   C3117704  11.211   9.232   5.644 -0.1724  0.3902  0.2048
  129DOPC   O3217705  11.189   9.161   5.547  0.7646  0.2449 -0.9572
  129DOPC   C3217706  11.342   9.299   5.682 -0.4685 -0.0649 -0.4947
  129DOPC   H2X17707  11.314   9.395   5.730  0.9229 -1.1252  2.7430
  129DOPC   H2Y17708  11.386   9.235   5.762  0.4118  1.5184  0.3177
  129DOPC   C2317709  11.040   8.730   5.459  0.2366 -0.9476  0.3655
  129DOPC   H3R17710  11.044   8.797   5.370  1.3948 -1.5084 -0.0255
  129DOPC   H3S17711  10.934   8.710   5.485 -0.1533 -0.5700 -0.8574
  129DOPC   C2417712  11.093   8.593   5.436 -0.4160 -0.3519  0.6209
  129DOPC   H4R17713  11.107   8.555   5.540 -3.9505  0.0327  1.3800
  129DOPC   H4S17714  11.187   8.606   5.380 -1.3911  1.5038 -0.6713
  129DOPC   C2517715  11.007   8.498   5.354 -0.2976  0.3737 -0.2245
  129DOPC   H5R17716  10.905   8.495   5.399  0.1233  1.2124  0.8202
  129DOPC   H5S17717  11.040   8.392   5.347  0.8799  0.6555  0.7276
  129DOPC   C2617718  11.000   8.553   5.206  0.0399 -0.2627  0.0593
  129DOPC   H6R17719  10.991   8.663   5.218  2.2464 -0.0176 -0.0706
  129DOPC   H6S17720  10.899   8.523   5.172 -0.5992 -0.8039  2.2509
  129DOPC   C2717721  11.107   8.518   5.103  0.1178  0.2763  0.0106
  129DOPC   H7R17722  11.205   8.557   5.138  0.4356 -1.7902  1.6419
  129DOPC   H7S17723  11.083   8.568   5.007 -0.0172 -0.3868 -0.3021
  129DOPC   C2817724  11.111   8.365   5.079  0.2704 -0.9861 -0.8785
  129DOPC   H8R17725  11.008   8.328   5.065 -0.6900 -0.2164  2.9886
  129DOPC   H8S17726  11.145   8.316   5.173  0.0877  0.1460 -0.2090
  129DOPC   C2917727  11.208   8.341   4.966  0.2124 -0.3628  0.0302
  129DOPC   H9R17728  11.281   8.423   4.958  0.5774 -0.7808 -1.0607
  129DOPC  C21017729  11.213   8.236   4.880  0.3011  0.0737  0.6817
  129DOPC  H10R17730  11.300   8.241   4.812  0.2327 -0.4515  0.5540
  129DOPC  C21117731  11.131   8.112   4.893  0.5764 -0.5602  0.3300
  129DOPC  H11R17732  11.046   8.119   4.965 -0.7781 -3.9211 -0.7439
  129DOPC  H11S17733  11.191   8.027   4.933  2.1021 -0.0754 -0.8343
  129DOPC  C21217734  11.056   8.057   4.766 -0.1264  0.1386 -0.1196
  129DOPC  H12R17735  11.041   7.948   4.776  0.4210  0.1562  1.1769
  129DOPC  H12S17736  11.134   8.058   4.687  0.6515  1.8491  0.6051
  129DOPC  C21317737  10.929   8.124   4.719  0.7323 -0.2276 -0.2882
  129DOPC  H13R17738  10.943   8.234   4.711 -0.8830 -0.1248 -2.7160
  129DOPC  H13S17739  10.854   8.111   4.799  0.3408  0.4862 -0.5312
  129DOPC  C21417740  10.870   8.073   4.592  0.3531  0.3897 -0.5980
  129DOPC  H14R17741  10.848   7.966   4.611  2.7007  0.2370  1.6613
  129DOPC  H14S17742  10.949   8.061   4.515 -1.7553 -0.2233 -2.8085
  129DOPC  C21517743  10.747   8.156   4.542 -0.2479 -0.0030  0.0718
  129DOPC  H15R17744  10.770   8.259   4.506  2.3052 -0.0513  1.2785
  129DOPC  H15S17745  10.679   8.174   4.629  0.7221  0.4557  0.7593
  129DOPC  C21617746  10.672   8.069   4.441 -0.2758 -0.0644 -0.5710
  129DOPC  H16R17747  10.688   7.965   4.479 -0.1113  0.7195  1.6774
  129DOPC  H16S17748  10.723   8.072   4.343 -1.1080  1.6894 -0.9753
  129DOPC  C21717749  10.519   8.092   4.419  0.6376 -0.9862  0.4993
  129DOPC  H17R17750  10.463   8.067   4.512 -0.9331 -1.0926 -0.4419
  129DOPC  H17S17751  10.489   8.020   4.340  0.7580 -1.4014  0.8239
  129DOPC  C21817752  10.497   8.242   4.377  1.2620  1.1460 -1.1908
  129DOPC  H18R17753  10.521   8.315   4.457 -0.1570 -1.4404  1.7879
  129DOPC  H18S17754  10.392   8.261   4.345  0.0251 -0.7838  1.3478
  129DOPC  H18T17755  10.563   8.268   4.292  0.7170 -0.3458 -2.1216
  129DOPC   C3317756  11.439   9.321   5.563  0.1122  0.2181  0.5431
  129DOPC   H3X17757  11.452   9.219   5.521 -1.1426  0.2986 -0.0822
  129DOPC   H3Y17758  11.535   9.358   5.605 -0.0744  1.0568  0.2581
  129DOPC   C3417759  11.384   9.422   5.455 -0.7509 -0.1630 -0.1832
  129DOPC   H4X17760  11.351   9.516   5.504  1.5066  0.1231  0.9415
  129DOPC   H4Y17761  11.300   9.377   5.399 -0.3592  1.5948 -2.3109
  129DOPC   C3517762  11.481   9.460   5.348 -0.3330 -0.8558  0.1989
  129DOPC   H5X17763  11.549   9.375   5.324 -0.3347 -1.4506  2.1241
  129DOPC   H5Y17764  11.561   9.534   5.372  0.2169 -1.6585  0.8818
  129DOPC   C3617765  11.424   9.513   5.219 -0.3956  0.3665 -0.2021
  129DOPC   H6X17766  11.371   9.432   5.165  0.4648  0.2296 -0.8557
  129DOPC   H6Y17767  11.353   9.596   5.239 -0.0196  0.4237  0.9509
  129DOPC   C3717768  11.532   9.561   5.114 -0.2265  0.2437 -0.6819
  129DOPC   H7X17769  11.585   9.645   5.163 -0.7516 -0.2580  0.8090
  129DOPC   H7Y17770  11.607   9.480   5.101  1.8763  1.7393  1.3609
  129DOPC   C3817771  11.478   9.623   4.989  0.6865 -0.0652  0.4801
  129DOPC   H8X17772  11.416   9.713   5.007  1.1856  0.5053 -0.5997
  129DOPC   H8Y17773  11.410   9.541   4.955  2.0449 -0.3639 -1.7216
  129DOPC   C3917774  11.584   9.644   4.887 -0.4671  0.5164 -0.7200
  129DOPC   H9X17775  11.601   9.570   4.808 -0.2957 -0.6234  0.3620
  129DOPC  C31017776  11.677   9.744   4.892 -0.5048 -0.1918 -0.7693
  129DOPC  H10X17777  11.755   9.734   4.815 -2.3031  0.0254 -2.7220
  129DOPC  C31117778  11.679   9.859   4.990 -0.5392  0.1844  0.5031
  129DOPC  H11X17779  11.770   9.861   5.053 -1.0260  0.6833  1.2081
  129DOPC  H11Y17780  11.604   9.852   5.072 -0.5310  1.3034  0.6248
  129DOPC  C31217781  11.658  10.007   4.927  0.1430  0.4364 -0.7454
  129DOPC  H12X17782  11.755  10.021   4.875  0.8068  0.5975  0.5051
  129DOPC  H12Y17783  11.648  10.076   5.013 -2.3725 -2.6050  1.6826
  129DOPC  C31317784  11.548  10.023   4.822 -0.3736  0.3790  0.0311
  129DOPC  H13X17785  11.577   9.953   4.741 -1.2728  1.1555 -0.9941
  129DOPC  H13Y17786  11.467   9.968   4.875  0.7878 -0.4626  0.9795
  129DOPC  C31417787  11.531  10.169   4.787  0.7220 -0.3855  0.3145
  129DOPC  H14X17788  11.498  10.233   4.871  4.5773 -0.1541  1.8269
  129DOPC  H14Y17789  11.629  10.213   4.758  0.2539  0.4708 -0.0091
  129DOPC  C31517790  11.435  10.187   4.660 -0.0347  0.3064  0.5221
  129DOPC  H15X17791  11.351  10.115   4.667 -0.6389  0.9361 -0.0849
  129DOPC  H15Y17792  11.485  10.144   4.571 -0.9666 -1.0779  0.6384
  129DOPC  C31617793  11.388  10.335   4.633 -0.2297 -0.4333 -0.2647
  129DOPC  H16X17794  11.315  10.359   4.714 -1.1670 -4.6479  0.4040
  129DOPC  H16Y17795  11.473  10.405   4.641 -0.7467  0.0685  1.3672
  129DOPC  C31717796  11.326  10.356   4.493  0.6736 -0.5541 -0.0041
  129DOPC  H17X17797  11.273  10.262   4.465  2.2849 -1.4230 -0.2311
  129DOPC  H17Y17798  11.255  10.441   4.506  1.7479  0.2883  0.4947
  129DOPC  C31817799  11.423  10.404   4.390  0.1245 -0.4565 -0.0787
  129DOPC  H18X17800  11.365  10.441   4.302  1.3725  5.0047  1.0228
  129DOPC  H18Y17801  11.477  10.499   4.409 -0.2431 -0.0652 -0.9236
  129DOPC  H18Z17802  11.498  10.324   4.373  0.0709 -0.8838  1.5044
  130DOPC     N17803   2.867   3.938   6.005  0.3586 -0.5265  0.6026
  130DOPC   C1217804   2.850   3.907   5.854 -0.1951 -0.1898  0.2647
  130DOPC  H12A17805   2.951   3.887   5.821 -0.7776 -0.9301 -1.1784
  130DOPC  H12B17806   2.827   3.997   5.799  1.7973  0.3232  0.2136
  130DOPC   C1317807   2.724   3.966   6.063  0.9087 -0.8560  0.3988
  130DOPC  H13A17808   2.679   4.045   6.004  3.9172  0.4680 -0.3358
  130DOPC  H13B17809   2.673   3.871   6.059  1.6017 -1.2217 -0.0305
  130DOPC  H13C17810   2.731   3.993   6.167 -1.3724 -0.4589  0.5072
  130DOPC   C1417811   2.948   4.060   6.034 -0.4477  0.7748 -0.2330
  130DOPC  H14A17812   3.043   4.056   5.982 -0.3955  0.9000 -0.1482
  130DOPC  H14B17813   2.905   4.153   6.001 -0.0109  1.8472  2.0429
  130DOPC  H14C17814   2.972   4.064   6.140 -1.9509 -1.2217  0.2411
  130DOPC   C1517815   2.930   3.824   6.077  0.2760 -0.0159 -0.3434
  130DOPC  H15A17816   3.035   3.804   6.060  0.6136  0.2083  1.3439
  130DOPC  H15B17817   2.883   3.730   6.053  2.6886 -1.3044 -0.4206
  130DOPC  H15C17818   2.924   3.833   6.184 -1.8868 -2.9957 -0.0781
  130DOPC   C1117819   2.751   3.796   5.814  0.4078 -0.0209  0.2310
  130DOPC  H11A17820   2.651   3.821   5.855  1.2386 -0.1621  2.4930
  130DOPC  H11B17821   2.742   3.799   5.704 -0.8010  0.4797  0.3307
  130DOPC     P17822   2.913   3.586   5.797  0.0030 -0.0788 -0.0787
  130DOPC   O1317823   2.996   3.524   5.902  0.0701  0.1725 -0.1420
  130DOPC   O1417824   2.982   3.669   5.695 -0.4808  0.0504 -0.4835
  130DOPC   O1217825   2.790   3.666   5.864 -0.0435  0.1685  0.1633
  130DOPC   O1117826   2.847   3.467   5.715 -0.0843 -0.3342  0.4343
  130DOPC    C117827   2.744   3.492   5.624 -0.3645  0.2692  0.3603
  130DOPC    HA17828   2.752   3.592   5.577  0.5611  0.2307  0.4242
  130DOPC    HB17829   2.647   3.467   5.673 -0.8291  2.4200  0.6635
  130DOPC    C217830   2.769   3.397   5.512 -0.2918  0.7666  0.6341
  130DOPC    HS17831   2.812   3.302   5.551 -1.2926  0.0215 -0.0255
  130DOPC   O2117832   2.877   3.466   5.440 -0.9450  0.0803 -0.2230
  130DOPC   C2117833   2.944   3.403   5.350 -0.5188  0.2040 -0.1343
  130DOPC   O2217834   2.961   3.278   5.347 -0.0613  0.0791  0.0038
  130DOPC   C2217835   3.019   3.504   5.261 -0.6241  0.0478 -0.5140
  130DOPC   H2R17836   2.994   3.606   5.298 -0.1214  0.6898 -1.8595
  130DOPC   H2S17837   2.973   3.493   5.160 -0.9892 -2.1631 -0.1440
  130DOPC    C317838   2.646   3.370   5.424 -0.8969 -0.5239  0.5683
  130DOPC    HX17839   2.629   3.456   5.356 -0.1844 -1.8548 -1.4067
  130DOPC    HY17840   2.552   3.363   5.483 -1.6418 -0.7469 -0.5968
  130DOPC   O3117841   2.649   3.242   5.351  0.1947 -0.1165  0.2464
  130DOPC   C3117842   2.672   3.250   5.219 -0.4656 -0.4253 -0.2159
  130DOPC   O3217843   2.705   3.352   5.162  0.1130  0.0729  0.3712
  130DOPC   C3217844   2.644   3.121   5.145  0.2131  0.8051  0.6371
  130DOPC   H2X17845   2.614   3.047   5.222 -1.2667 -0.1733 -0.8131
  130DOPC   H2Y17846   2.559   3.134   5.074  1.0065 -0.6096 -0.6273
  130DOPC   C2317847   3.175   3.483   5.269  0.6487  0.0103  0.7368
  130DOPC   H3R17848   3.201   3.387   5.220  0.9377 -0.7269  2.2792
  130DOPC   H3S17849   3.208   3.483   5.375  2.7650  0.6045  0.1235
  130DOPC   C2417850   3.244   3.592   5.192 -0.5831  0.1256 -0.0873
  130DOPC   H4R17851   3.354   3.583   5.208 -0.4726  1.6074  0.1416
  130DOPC   H4S17852   3.212   3.692   5.227 -1.1270  0.8514 -2.4610
  130DOPC   C2517853   3.216   3.592   5.039  0.7119  0.5555  0.2312
  130DOPC   H5R17854   3.109   3.610   5.014  0.1183 -1.3985  1.1924
  130DOPC   H5S17855   3.231   3.487   5.007 -2.1837  0.8131 -2.3842
  130DOPC   C2617856   3.307   3.682   4.962 -0.2991  0.1891 -0.8322
  130DOPC   H6R17857   3.404   3.627   4.960 -0.6414 -0.4276 -0.6461
  130DOPC   H6S17858   3.330   3.774   5.020  0.3474 -0.1303 -0.5681
  130DOPC   C2717859   3.263   3.717   4.818 -0.0086  0.3799  0.4343
  130DOPC   H7R17860   3.181   3.793   4.817 -0.9865 -0.6579 -0.3668
  130DOPC   H7S17861   3.219   3.627   4.770 -0.4487  0.2784  1.0152
  130DOPC   C2817862   3.373   3.762   4.735 -0.4849 -0.4598  0.2930
  130DOPC   H8R17863   3.449   3.681   4.740 -1.7773 -1.6783  0.6768
  130DOPC   H8S17864   3.418   3.855   4.775 -3.0427  1.9453 -1.9729
  130DOPC   C2917865   3.338   3.794   4.593 -0.1599  0.1787  0.2626
  130DOPC   H9R17866   3.331   3.705   4.530  0.6126  1.1020 -1.1775
  130DOPC  C21017867   3.340   3.917   4.539  0.4833 -0.3937  0.3519
  130DOPC  H10R17868   3.306   3.920   4.435  0.7205  0.6248  0.2983
  130DOPC  C21117869   3.350   4.042   4.623 -0.2816  0.5361 -0.1430
  130DOPC  H11R17870   3.445   4.054   4.680 -1.6141  2.9904  1.7558
  130DOPC  H11S17871   3.274   4.050   4.704  0.1854  0.3474  0.3244
  130DOPC  C21217872   3.341   4.166   4.540  0.2377 -0.5044  0.1413
  130DOPC  H12R17873   3.352   4.249   4.614 -0.8163 -1.0718  0.9642
  130DOPC  H12S17874   3.245   4.183   4.488  0.7357 -1.1411 -1.0320
  130DOPC  C21317875   3.458   4.186   4.442  0.7953  0.7457 -0.1997
  130DOPC  H13R17876   3.456   4.102   4.369  2.9731  1.0196 -0.6352
  130DOPC  H13S17877   3.554   4.159   4.490 -0.4078 -0.8584  1.4265
  130DOPC  C21417878   3.462   4.319   4.364 -0.4110 -0.3411  0.7817
  130DOPC  H14R17879   3.453   4.399   4.440 -0.0804 -0.6583  1.1632
  130DOPC  H14S17880   3.376   4.332   4.295  1.0421 -0.7205 -1.1757
  130DOPC  C21517881   3.599   4.336   4.295 -0.0013 -0.7870 -0.1163
  130DOPC  H15R17882   3.622   4.254   4.224  1.0432 -1.0494  0.5063
  130DOPC  H15S17883   3.670   4.334   4.381 -3.1789  2.2750  2.9012
  130DOPC  C21617884   3.625   4.465   4.216 -0.4770  0.1645  0.0113
  130DOPC  H16R17885   3.735   4.481   4.218 -0.3287 -0.6255 -0.7986
  130DOPC  H16S17886   3.579   4.553   4.266 -0.3826  0.3004 -0.1399
  130DOPC  C21717887   3.557   4.460   4.076 -0.1300  0.0847  0.0494
  130DOPC  H17R17888   3.449   4.474   4.099 -0.1455 -0.9566  0.6629
  130DOPC  H17S17889   3.571   4.362   4.025  1.0139  0.9522 -1.4143
  130DOPC  C21817890   3.592   4.575   3.990 -0.4383 -0.3053 -0.4365
  130DOPC  H18R17891   3.542   4.666   4.027  1.5875 -0.3190  2.7768
  130DOPC  H18S17892   3.571   4.564   3.882 -3.6403 -0.4950  0.1166
  130DOPC  H18T17893   3.703   4.585   3.993 -0.4743 -0.1924  0.8704
  130DOPC   C3317894   2.755   3.060   5.058  0.2148  0.7976  0.3824
  130DOPC   H3X17895   2.851   3.059   5.115  0.6380 -3.1421 -0.1313
  130DOPC   H3Y17896   2.778   3.121   4.969 -0.8907 -0.4250 -0.7753
  130DOPC   C3417897   2.711   2.925   4.997  0.4865 -0.7725 -0.8480
  130DOPC   H4X17898   2.617   2.947   4.942 -0.0278 -1.6959 -0.3673
  130DOPC   H4Y17899   2.674   2.864   5.082  1.6434  0.8535  0.8902
  130DOPC   C3517900   2.824   2.861   4.919  0.0317  0.7850 -0.2053
  130DOPC   H5X17901   2.915   2.840   4.979  2.0051  1.0017 -2.9397
  130DOPC   H5Y17902   2.865   2.921   4.836  0.3514 -0.8536 -1.2894
  130DOPC   C3617903   2.778   2.727   4.858  0.3173  0.4399  0.0750
  130DOPC   H6X17904   2.861   2.678   4.803  0.2109  1.3211 -0.9124
  130DOPC   H6Y17905   2.742   2.665   4.943  1.6365  1.0548  1.1168
  130DOPC   C3717906   2.671   2.742   4.746 -0.6865 -0.6383 -0.3275
  130DOPC   H7X17907   2.584   2.801   4.782  1.3222  1.8895  0.7159
  130DOPC   H7Y17908   2.715   2.797   4.660  0.6255  0.5004  1.0170
  130DOPC   C3817909   2.622   2.609   4.690 -0.4097 -0.5969 -0.3018
  130DOPC   H8X17910   2.526   2.629   4.640 -0.3594 -0.5087 -0.3636
  130DOPC   H8Y17911   2.585   2.554   4.779 -1.3680  0.1079 -0.2481
  130DOPC   C3917912   2.721   2.534   4.605  0.5921  0.3597 -0.2109
  130DOPC   H9X17913   2.779   2.458   4.660 -0.4969  1.2161  2.3014
  130DOPC  C31017914   2.733   2.547   4.471 -0.6217  0.0712  0.2492
  130DOPC  H10X17915   2.793   2.470   4.420 -0.3432  0.7426 -0.4618
  130DOPC  C31117916   2.677   2.644   4.376  0.1718 -0.2267  0.8062
  130DOPC  H11X17917   2.743   2.668   4.290 -0.0551 -0.7312  0.4870
  130DOPC  H11Y17918   2.659   2.741   4.427 -2.8603 -0.5727  0.5800
  130DOPC  C31217919   2.539   2.609   4.323 -0.0956 -0.8577  0.5548
  130DOPC  H12X17920   2.491   2.693   4.268 -1.8608 -0.9762  1.8158
  130DOPC  H12Y17921   2.476   2.595   4.414 -0.3879  1.8502  0.8591
  130DOPC  C31317922   2.531   2.479   4.245 -0.3104 -0.1500 -0.5303
  130DOPC  H13X17923   2.616   2.480   4.173  1.4145 -1.2158  1.4106
  130DOPC  H13Y17924   2.552   2.396   4.315 -1.7005 -0.2350 -0.2006
  130DOPC  C31417925   2.398   2.445   4.178 -0.1633  0.3319 -0.0387
  130DOPC  H14X17926   2.401   2.346   4.126 -3.2182 -0.5463  1.2195
  130DOPC  H14Y17927   2.328   2.444   4.264  0.3245  2.2861  0.4220
  130DOPC  C31517928   2.333   2.545   4.085  0.7086  0.3265  0.4381
  130DOPC  H15X17929   2.307   2.641   4.134  0.4166  0.7472 -0.5160
  130DOPC  H15Y17930   2.250   2.490   4.035  1.1536 -0.2249  0.2948
  130DOPC  C31617931   2.421   2.592   3.965 -0.5535 -0.7768  0.2699
  130DOPC  H16X17932   2.512   2.636   4.011 -0.0285 -3.0197  1.5835
  130DOPC  H16Y17933   2.460   2.509   3.901 -2.5923 -1.4091 -0.2245
  130DOPC  C31717934   2.354   2.703   3.880  0.2314 -0.3787 -0.3111
  130DOPC  H17X17935   2.311   2.772   3.955 -0.8074 -1.9228  0.5611
  130DOPC  H17Y17936   2.441   2.753   3.832  1.5686 -1.9405  0.3506
  130DOPC  C31817937   2.247   2.656   3.782  1.2500  0.0123  0.3091
  130DOPC  H18X17938   2.295   2.570   3.731  0.0906  0.0393 -0.8599
  130DOPC  H18Y17939   2.155   2.626   3.835 -0.0381  0.9908 -1.2826
  130DOPC  H18Z17940   2.213   2.724   3.701  0.2694  0.0008  0.7007
  131DOPC     N17941   1.803   2.858   6.186  0.5477  0.7007  0.0417
  131DOPC   C1217942   1.936   2.855   6.109  0.2200 -0.2523 -0.2186
  131DOPC  H12A17943   1.961   2.751   6.097  3.5119 -0.0789  3.3436
  131DOPC  H12B17944   2.019   2.885   6.171  0.4941  1.2202 -1.2494
  131DOPC   C1317945   1.709   2.772   6.112 -0.7989  0.3052 -0.1763
  131DOPC  H13A17946   1.610   2.763   6.153  0.3373 -1.8125  2.3902
  131DOPC  H13B17947   1.705   2.807   6.010  0.5981 -1.1841 -0.7943
  131DOPC  H13C17948   1.752   2.673   6.107  2.8600  1.7521 -3.7605
  131DOPC   C1417949   1.749   2.992   6.215  0.7742  0.2157 -0.1942
  131DOPC  H14A17950   1.816   3.049   6.278 -0.5019 -2.8867  4.4625
  131DOPC  H14B17951   1.739   3.033   6.115  2.8241  1.5613  0.0766
  131DOPC  H14C17952   1.646   2.996   6.247  1.1664  0.7576  1.0512
  131DOPC   C1517953   1.831   2.793   6.322 -0.3477  0.0363  0.2730
  131DOPC  H15A17954   1.737   2.776   6.373  0.1254  1.5093  1.7341
  131DOPC  H15B17955   1.893   2.857   6.383  0.7132  0.7254 -1.4836
  131DOPC  H15C17956   1.880   2.699   6.304 -1.9559 -0.7048 -0.4268
  131DOPC   C1117957   1.933   2.929   5.975  0.2778  0.0657 -0.2750
  131DOPC  H11A17958   1.919   3.037   5.994 -1.4168 -0.1648 -0.1159
  131DOPC  H11B17959   2.039   2.924   5.942  1.0113  1.1600  1.7166
  131DOPC     P17960   1.889   2.767   5.781 -0.5895  0.0997 -0.2935
  131DOPC   O1317961   1.782   2.735   5.688 -0.5995 -0.3125  0.0657
  131DOPC   O1417962   1.949   2.665   5.864 -0.3594  1.2944 -0.1327
  131DOPC   O1217963   1.838   2.877   5.883  0.1898 -0.1331  0.5697
  131DOPC   O1117964   2.006   2.848   5.707  0.6731  0.7518 -0.2787
  131DOPC    C117965   2.090   2.786   5.608  0.4416  0.3175 -0.0126
  131DOPC    HA17966   2.057   2.684   5.580 -2.1731  0.7906  1.0932
  131DOPC    HB17967   2.194   2.777   5.647  1.2875 -0.9967 -2.3614
  131DOPC    C217968   2.101   2.861   5.471 -0.1864  0.0453  0.3510
  131DOPC    HS17969   2.111   2.969   5.497  0.4699 -0.2369  1.3300
  131DOPC   O2117970   1.981   2.833   5.397 -0.1161  0.5053 -0.3861
  131DOPC   C2117971   1.886   2.926   5.394  0.2393  0.1401 -0.1038
  131DOPC   O2217972   1.883   3.028   5.453 -0.4057  0.2552 -0.2535
  131DOPC   C2217973   1.777   2.875   5.299  0.1444 -0.3014  0.4854
  131DOPC   H2R17974   1.683   2.875   5.358  0.9024 -0.0822  1.7303
  131DOPC   H2S17975   1.798   2.774   5.257  0.6472  1.0783 -2.8404
  131DOPC    C317976   2.215   2.815   5.383 -0.1241  0.3232 -0.1488
  131DOPC    HX17977   2.192   2.706   5.385 -1.6549  0.6328  1.8660
  131DOPC    HY17978   2.316   2.834   5.425  0.7968 -0.4001 -1.9007
  131DOPC   O3117979   2.203   2.864   5.248 -0.4619 -0.0020  0.0180
  131DOPC   C3117980   2.258   2.984   5.231 -0.0320  0.2128 -0.3285
  131DOPC   O3217981   2.302   3.053   5.323  0.1765 -0.3199  0.4046
  131DOPC   C3217982   2.261   3.018   5.081 -0.9560 -0.3429  0.1354
  131DOPC   H2X17983   2.361   2.974   5.060 -0.8934  0.0500 -0.4119
  131DOPC   H2Y17984   2.175   2.963   5.038 -1.7641 -1.4966  2.9782
  131DOPC   C2317985   1.727   2.975   5.187  1.0215 -0.0402  0.7092
  131DOPC   H3R17986   1.703   3.069   5.241 -1.1616 -0.6363  0.8576
  131DOPC   H3S17987   1.639   2.926   5.140 -0.0695  0.2442  2.3419
  131DOPC   C2417988   1.840   2.990   5.084  0.2466 -0.2643  0.0707
  131DOPC   H4R17989   1.857   2.893   5.032  0.6993  0.8043 -1.8740
  131DOPC   H4S17990   1.940   3.022   5.121 -0.8527  2.3730  0.9515
  131DOPC   C2517991   1.791   3.079   4.970  0.0451  0.0702 -0.0277
  131DOPC   H5R17992   1.770   3.174   5.024 -0.1364 -0.9236  1.7568
  131DOPC   H5S17993   1.698   3.024   4.943  1.6843 -3.9307  1.6898
  131DOPC   C2617994   1.878   3.096   4.849 -0.2920 -0.1545  0.0896
  131DOPC   H6R17995   1.902   2.995   4.809  2.1649  0.0957  0.7819
  131DOPC   H6S17996   1.981   3.125   4.878 -0.9616  2.7552 -0.1610
  131DOPC   C2717997   1.827   3.197   4.747 -0.0523  0.1176 -0.9295
  131DOPC   H7R17998   1.855   3.300   4.778  2.4828 -0.5649 -0.7185
  131DOPC   H7S17999   1.718   3.198   4.726 -0.9220 -1.8222  2.6973
  131DOPC   C2818000   1.881   3.171   4.593 -0.0757  0.0666  0.4625
  131DOPC   H8R18001   1.796   3.207   4.531  0.3653  2.7148  1.2880
  131DOPC   H8S18002   1.896   3.061   4.586  0.4075  0.2293 -1.5150
  131DOPC   C2918003   2.011   3.231   4.558 -0.4652  0.5015 -0.0436
  131DOPC   H9R18004   2.090   3.156   4.540  0.3508  1.9439 -3.0078
  131DOPC  C21018005   2.043   3.362   4.548  0.6185  0.5691  0.0600
  131DOPC  H10R18006   2.151   3.377   4.534  0.9369 -1.8893 -0.5207
  131DOPC  C21118007   1.946   3.475   4.566 -0.0821  0.4738  0.3564
  131DOPC  H11R18008   2.008   3.534   4.636  0.3629  1.4939 -0.8427
  131DOPC  H11S18009   1.848   3.449   4.612 -0.3528 -0.3493 -0.6252
  131DOPC  C21218010   1.926   3.565   4.445 -0.2775 -0.2027  0.0358
  131DOPC  H12R18011   2.023   3.583   4.395 -1.1065  0.2357 -1.5058
  131DOPC  H12S18012   1.884   3.663   4.475 -1.1550 -0.3053 -0.7905
  131DOPC  C21318013   1.837   3.505   4.342  0.2445  0.1123 -0.2193
  131DOPC  H13R18014   1.749   3.464   4.396 -0.3180  0.7611 -0.6343
  131DOPC  H13S18015   1.886   3.415   4.299 -0.8634 -0.5801 -0.0744
  131DOPC  C21418016   1.793   3.592   4.226 -0.0605  0.2567  0.2879
  131DOPC  H14R18017   1.878   3.631   4.166  0.1306  0.4830  0.7003
  131DOPC  H14S18018   1.738   3.681   4.264 -1.2922  0.9111 -2.7716
  131DOPC  C21518019   1.707   3.506   4.130  0.3667 -0.5514 -0.3774
  131DOPC  H15R18020   1.619   3.484   4.195  0.4565 -0.8512 -0.3520
  131DOPC  H15S18021   1.762   3.415   4.098 -1.2803 -2.1095  0.9722
  131DOPC  C21618022   1.686   3.597   4.007  0.3387 -0.2486  0.3329
  131DOPC  H16R18023   1.781   3.622   3.955  0.8851 -1.0521  0.9143
  131DOPC  H16S18024   1.653   3.699   4.038  2.5010  0.0427  1.9201
  131DOPC  C21718025   1.598   3.531   3.903  0.2207 -0.1608  0.7683
  131DOPC  H17R18026   1.501   3.556   3.951 -1.6217  1.1067 -3.1456
  131DOPC  H17S18027   1.597   3.422   3.881  0.4503  0.1979 -1.2705
  131DOPC  C21818028   1.590   3.605   3.766 -0.1728  0.0206  0.0736
  131DOPC  H18R18029   1.534   3.700   3.780  0.0469  0.1549  0.0409
  131DOPC  H18S18030   1.523   3.548   3.698 -2.3594 -0.1939  2.2498
  131DOPC  H18T18031   1.692   3.617   3.724 -0.2097  1.7313  0.4045
  131DOPC   C3318032   2.237   3.161   5.035 -0.6834  0.4211 -0.2290
  131DOPC   H3X18033   2.294   3.232   5.099  1.2978 -0.9020 -0.4189
  131DOPC   H3Y18034   2.129   3.178   5.051 -1.1398 -1.1371 -1.4284
  131DOPC   C3418035   2.260   3.183   4.882  0.7919 -0.0865  0.2050
  131DOPC   H4X18036   2.242   3.291   4.865  2.5191  0.0783 -0.8031
  131DOPC   H4Y18037   2.201   3.124   4.809  2.4279 -0.4618 -0.8617
  131DOPC   C3518038   2.402   3.171   4.849  0.5045  0.6661  0.7870
  131DOPC   H5X18039   2.429   3.064   4.858 -1.3159  0.0507 -0.5918
  131DOPC   H5Y18040   2.472   3.218   4.922  0.7000  0.6225  0.6266
  131DOPC   C3618041   2.437   3.212   4.704  0.4276 -0.3038 -0.1104
  131DOPC   H6X18042   2.383   3.152   4.628  0.0445 -0.8270  0.5650
  131DOPC   H6Y18043   2.396   3.316   4.701 -1.6675 -1.0875  0.1029
  131DOPC   C3718044   2.588   3.221   4.683 -0.1010 -0.1267 -0.2713
  131DOPC   H7X18045   2.625   3.306   4.745 -2.1291 -1.0562  2.4135
  131DOPC   H7Y18046   2.643   3.137   4.730 -2.3987 -1.7029 -0.2498
  131DOPC   C3818047   2.630   3.224   4.539  0.1197  0.3267 -0.7714
  131DOPC   H8X18048   2.588   3.141   4.478  2.6234 -1.6069 -0.0549
  131DOPC   H8Y18049   2.739   3.204   4.534  0.0405 -0.9088  1.1568
  131DOPC   C3918050   2.616   3.366   4.483 -0.2526 -0.2490 -0.9462
  131DOPC   H9X18051   2.651   3.453   4.540  0.1539 -0.6877 -0.5181
  131DOPC  C31018052   2.546   3.396   4.374  0.3800  0.0466 -0.0321
  131DOPC  H10X18053   2.527   3.504   4.365 -3.4773 -0.7078 -3.2617
  131DOPC  C31118054   2.474   3.313   4.269 -0.6148  0.0675 -0.8172
  131DOPC  H11X18055   2.530   3.218   4.255 -0.6437 -0.1476  0.3969
  131DOPC  H11Y18056   2.483   3.366   4.172  0.1366 -0.2828 -0.9438
  131DOPC  C31218057   2.325   3.280   4.317 -0.1482  0.4823  0.2677
  131DOPC  H12X18058   2.274   3.376   4.340 -1.2116  0.4432 -1.6663
  131DOPC  H12Y18059   2.332   3.217   4.408 -1.3217 -0.6073 -0.3711
  131DOPC  C31318060   2.233   3.213   4.214 -0.2312 -0.1914 -0.1160
  131DOPC  H13X18061   2.293   3.135   4.163  2.5884  0.5797  1.7488
  131DOPC  H13Y18062   2.150   3.163   4.269 -1.1968  0.7601 -0.6638
  131DOPC  C31418063   2.180   3.317   4.111  0.8125  0.2791  0.1490
  131DOPC  H14X18064   2.148   3.413   4.157 -0.9494 -0.2396  0.0849
  131DOPC  H14Y18065   2.260   3.333   4.036  1.8945 -0.4377  1.1073
  131DOPC  C31518066   2.049   3.270   4.039 -0.7985  0.3346 -0.8157
  131DOPC  H15X18067   1.969   3.265   4.117  0.5632 -3.9622  0.6334
  131DOPC  H15Y18068   2.071   3.167   4.004  2.1325  0.1072  1.2967
  131DOPC  C31618069   2.016   3.353   3.913 -0.7924  0.4779 -0.7029
  131DOPC  H16X18070   1.982   3.457   3.934  1.0265  1.0902 -0.6106
  131DOPC  H16Y18071   2.113   3.356   3.859 -0.8039 -0.4170 -0.7925
  131DOPC  C31718072   1.918   3.282   3.815 -0.6331  0.3547 -0.0463
  131DOPC  H17X18073   1.965   3.185   3.789 -0.6278  0.4014 -0.2116
  131DOPC  H17Y18074   1.822   3.261   3.866 -0.9010 -1.8969 -1.3469
  131DOPC  C31818075   1.894   3.366   3.688 -0.6876  0.5451 -1.0166
  131DOPC  H18X18076   1.837   3.459   3.711 -1.5734  0.0476 -1.1336
  131DOPC  H18Y18077   1.996   3.395   3.655 -0.3889  0.3567 -0.2765
  131DOPC  H18Z18078   1.832   3.313   3.612 -0.9349 -1.3670  0.4416
  132DOPC     N18079   4.321   0.866   6.103  0.4788  0.1305 -0.1635
  132DOPC   C1218080   4.170   0.830   6.102 -0.0391  0.1276  0.5579
  132DOPC  H12A18081   4.150   0.733   6.060 -1.2051 -1.6048  4.6494
  132DOPC  H12B18082   4.125   0.898   6.031 -2.4870 -2.5435 -0.6398
  132DOPC   C1318083   4.371   0.868   5.961 -0.6161 -0.0155  0.3540
  132DOPC  H13A18084   4.332   0.952   5.904  0.8134  0.1612 -0.4022
  132DOPC  H13B18085   4.478   0.857   5.950 -0.5200 -1.0279  2.0027
  132DOPC  H13C18086   4.330   0.782   5.911 -1.0388  0.8345 -0.8144
  132DOPC   C1418087   4.398   0.779   6.188 -0.2750  0.0359  0.1834
  132DOPC  H14A18088   4.399   0.674   6.163 -1.9648  0.4559 -1.9522
  132DOPC  H14B18089   4.501   0.812   6.195  1.3240 -4.0500 -1.1859
  132DOPC  H14C18090   4.338   0.781   6.278  0.7455  0.4961  0.8739
  132DOPC   C1518091   4.345   1.004   6.148  0.0127 -0.5764 -0.0739
  132DOPC  H15A18092   4.450   1.027   6.160  0.7576 -2.7075 -1.8252
  132DOPC  H15B18093   4.307   1.031   6.245  0.0832  0.1164 -0.2289
  132DOPC  H15C18094   4.301   1.082   6.087  0.1160  1.8765  2.7659
  132DOPC   C1118095   4.090   0.823   6.233 -0.0079 -0.2713  0.4020
  132DOPC  H11A18096   4.114   0.916   6.289 -0.7129  0.1349  0.0349
  132DOPC  H11B18097   3.980   0.821   6.219  0.0035  1.3550 -0.1419
  132DOPC     P18098   4.096   0.562   6.271 -0.1057  0.3888 -0.3457
  132DOPC   O1318099   3.974   0.524   6.350 -0.0708 -0.1588 -0.0557
  132DOPC   O1418100   4.219   0.485   6.283 -0.2390  0.2275  0.1842
  132DOPC   O1218101   4.137   0.710   6.313  0.2096 -0.4863  0.2740
  132DOPC   O1118102   4.063   0.577   6.119 -0.6079 -0.6042  0.2101
  132DOPC    C118103   3.936   0.575   6.055 -0.4381  0.2238 -0.3244
  132DOPC    HA18104   3.924   0.638   5.963 -3.1754  0.3240  0.0214
  132DOPC    HB18105   3.858   0.606   6.127  0.5258 -1.7811  1.6794
  132DOPC    C218106   3.902   0.436   6.009 -0.4821 -0.2387  0.0831
  132DOPC    HS18107   3.915   0.367   6.095  0.0724 -1.6262 -1.0941
  132DOPC   O2118108   3.990   0.401   5.900  0.0136  0.5083  0.1172
  132DOPC   C2118109   4.014   0.270   5.881  0.1999  0.1172  0.1171
  132DOPC   O2218110   3.965   0.186   5.957  0.2094 -0.0350 -0.1787
  132DOPC   C2218111   4.108   0.250   5.762  0.0877  0.6811 -0.1280
  132DOPC   H2R18112   4.146   0.146   5.772  1.1737  1.0900  0.1697
  132DOPC   H2S18113   4.195   0.319   5.770  1.3764 -0.4242 -3.2058
  132DOPC    C318114   3.761   0.414   5.971  1.1023  0.5307  1.0479
  132DOPC    HX18115   3.706   0.455   6.058  0.8572  1.0719  0.6433
  132DOPC    HY18116   3.732   0.308   5.960  2.2755  0.3236 -0.3478
  132DOPC   O3118117   3.724   0.473   5.845  0.6209 -0.3108 -0.1054
  132DOPC   C3118118   3.601   0.530   5.840  0.4917  0.6920 -0.1123
  132DOPC   O3218119   3.536   0.549   5.943  0.4768  0.0874 -0.0756
  132DOPC   C3218120   3.556   0.561   5.701  0.2390  0.4413  0.1141
  132DOPC   H2X18121   3.565   0.672   5.694  0.1541  0.6898  2.9613
  132DOPC   H2Y18122   3.618   0.507   5.626  0.6943  0.0287  0.7766
  132DOPC   C2318123   4.033   0.276   5.627 -0.5497 -0.1568  0.6357
  132DOPC   H3R18124   3.995   0.381   5.632  1.3592  0.5083  2.6508
  132DOPC   H3S18125   3.943   0.212   5.616  0.1666 -0.9345 -1.0682
  132DOPC   C2418126   4.125   0.247   5.499  0.4992  0.4264  0.6613
  132DOPC   H4R18127   4.197   0.331   5.489 -0.7495  1.4227 -0.3433
  132DOPC   H4S18128   4.058   0.248   5.410  0.5562  1.2819  0.6225
  132DOPC   C2518129   4.197   0.111   5.503 -0.2543  0.3348  0.0375
  132DOPC   H5R18130   4.144   0.032   5.560  0.5104 -2.3031 -2.6347
  132DOPC   H5S18131   4.289   0.127   5.563  1.1858  0.0195 -2.0053
  132DOPC   C2618132   4.227   0.043   5.369  0.0496 -0.1209 -0.3168
  132DOPC   H6R18133   4.309  -0.028   5.390 -0.8598 -1.3214 -0.6607
  132DOPC   H6S18134   4.247   0.117   5.289 -2.4272 -0.1277 -1.0367
  132DOPC   C2718135   4.106  -0.039   5.320  0.7569 -0.4417  0.0914
  132DOPC   H7R18136   4.020   0.030   5.304  0.7481 -0.1084  1.4043
  132DOPC   H7S18137   4.076  -0.103   5.405  2.0773  0.4086  1.2509
  132DOPC   C2818138   4.140  -0.123   5.189  0.8056 -1.4832 -0.2687
  132DOPC   H8R18139   4.228  -0.183   5.220  0.2336 -1.7658  0.8554
  132DOPC   H8S18140   4.168  -0.047   5.113  1.6134 -0.1211  1.3031
  132DOPC   C2918141   4.023  -0.207   5.140 -0.7145  0.0505  0.2024
  132DOPC   H9R18142   3.929  -0.180   5.190 -0.3432 -1.2578  1.7233
  132DOPC  C21018143   4.028  -0.313   5.053 -0.3664 -0.1146 -0.4813
  132DOPC  H10R18144   3.934  -0.367   5.034 -0.1350 -0.4028 -0.8276
  132DOPC  C21118145   4.147  -0.368   4.975  0.3859  0.2270 -0.6121
  132DOPC  H11R18146   4.229  -0.297   4.954  1.1550 -0.5283 -0.2600
  132DOPC  H11S18147   4.103  -0.414   4.884  2.1233  1.5986 -2.2230
  132DOPC  C21218148   4.213  -0.481   5.056 -0.2408 -0.2174  0.0039
  132DOPC  H12R18149   4.246  -0.443   5.155 -3.0881 -0.8270  1.3182
  132DOPC  H12S18150   4.300  -0.517   4.999  1.2570 -1.4199  2.8368
  132DOPC  C21318151   4.120  -0.595   5.087  0.5107  0.0766 -0.3099
  132DOPC  H13R18152   4.068  -0.626   4.993  0.4209  1.1641 -0.6321
  132DOPC  H13S18153   4.042  -0.555   5.155  0.8090  0.7308 -0.3448
  132DOPC  C21418154   4.195  -0.714   5.157  0.3115  0.7690 -0.0321
  132DOPC  H14R18155   4.229  -0.660   5.248  0.0491  0.4616  0.2511
  132DOPC  H14S18156   4.283  -0.758   5.106  0.7901 -1.3464  2.4084
  132DOPC  C21518157   4.096  -0.833   5.192 -0.8331 -0.9171  0.4020
  132DOPC  H15R18158   4.169  -0.898   5.245  0.0919 -1.6494 -1.6818
  132DOPC  H15S18159   4.067  -0.891   5.102 -0.8189  0.4943 -0.5452
  132DOPC  C21618160   3.986  -0.778   5.286 -0.2254 -0.2962 -0.0828
  132DOPC  H16R18161   3.906  -0.724   5.231  0.9748 -0.3073 -1.9753
  132DOPC  H16S18162   4.034  -0.711   5.360 -2.2071 -0.0871  1.0577
  132DOPC  C21718163   3.934  -0.900   5.364  0.1111  0.0029 -0.6109
  132DOPC  H17R18164   3.876  -0.857   5.448 -0.3012 -1.3280 -0.1802
  132DOPC  H17S18165   4.022  -0.948   5.411  0.5679  0.3746 -1.0889
  132DOPC  C21818166   3.855  -0.999   5.288  0.2375  0.1708 -0.0380
  132DOPC  H18R18167   3.911  -1.043   5.202 -0.9611 -0.1876 -0.6481
  132DOPC  H18S18168   3.758  -0.950   5.268 -0.7151 -0.7189  2.0187
  132DOPC  H18T18169   3.826  -1.084   5.354 -2.1775  2.1311  1.6098
  132DOPC   C3318170   3.412   0.521   5.658 -0.2706  0.7409  0.1935
  132DOPC   H3X18171   3.330   0.560   5.721 -1.1826  1.5199 -1.4199
  132DOPC   H3Y18172   3.412   0.410   5.666  2.0378  0.7535  0.9829
  132DOPC   C3418173   3.396   0.579   5.510  0.6491  0.0412  0.2326
  132DOPC   H4X18174   3.484   0.532   5.461 -1.8854 -1.6313 -3.1919
  132DOPC   H4Y18175   3.396   0.690   5.515 -2.3689  0.1604 -0.5241
  132DOPC   C3518176   3.262   0.534   5.430 -0.6272 -0.8273 -0.7146
  132DOPC   H5X18177   3.185   0.606   5.464 -0.1160 -1.1984  1.3569
  132DOPC   H5Y18178   3.242   0.431   5.466  1.3348 -0.8382  0.4742
  132DOPC   C3618179   3.286   0.539   5.278  0.2636  0.7537  0.3566
  132DOPC   H6X18180   3.303   0.644   5.246 -0.2531  1.4417  2.1769
  132DOPC   H6Y18181   3.376   0.479   5.251 -0.4711 -0.5746  0.7894
  132DOPC   C3718182   3.160   0.498   5.190  0.0387  0.1242 -0.3474
  132DOPC   H7X18183   3.096   0.420   5.236  0.2121  0.2624  0.1343
  132DOPC   H7Y18184   3.091   0.584   5.189  0.3267  0.3495 -0.9471
  132DOPC   C3818185   3.195   0.443   5.053  0.4186 -0.1432 -0.6462
  132DOPC   H8X18186   3.250   0.522   4.996  1.2098  0.9311  1.4867
  132DOPC   H8Y18187   3.102   0.425   4.996  0.5235 -1.3529 -0.4629
  132DOPC   C3918188   3.283   0.319   5.067 -0.3718  0.3032  0.9682
  132DOPC   H9X18189   3.291   0.270   5.165  3.2757 -2.8951 -0.6435
  132DOPC  C31018190   3.372   0.278   4.970 -0.3239  0.6714 -0.5482
  132DOPC  H10X18191   3.437   0.190   4.978 -1.0940  0.1046 -0.3985
  132DOPC  C31118192   3.390   0.350   4.836  0.0290 -0.0401 -0.0404
  132DOPC  H11X18193   3.472   0.424   4.843  1.0382 -1.2269  1.0718
  132DOPC  H11Y18194   3.297   0.399   4.800  0.4067  0.8414  0.1622
  132DOPC  C31218195   3.425   0.245   4.736 -0.3419 -0.1368  0.1300
  132DOPC  H12X18196   3.345   0.167   4.738  0.1104 -0.6651 -1.0736
  132DOPC  H12Y18197   3.522   0.196   4.760 -0.7904 -1.9986 -1.5753
  132DOPC  C31318198   3.446   0.316   4.596 -0.2305 -0.3582  0.5269
  132DOPC  H13X18199   3.352   0.374   4.584 -0.6068 -0.8701  0.9622
  132DOPC  H13Y18200   3.533   0.385   4.591  0.4096 -1.1510  0.4398
  132DOPC  C31418201   3.445   0.212   4.476  0.2404 -0.5805 -0.0238
  132DOPC  H14X18202   3.365   0.136   4.491  0.0211 -0.1838  0.9416
  132DOPC  H14Y18203   3.421   0.271   4.385 -3.1971 -2.0944 -0.2705
  132DOPC  C31518204   3.576   0.129   4.460  0.0280 -0.4526  0.1988
  132DOPC  H15X18205   3.582   0.066   4.551  3.5014  0.9216  1.0646
  132DOPC  H15Y18206   3.663   0.198   4.460 -0.3157  0.0238 -0.9866
  132DOPC  C31618207   3.572   0.049   4.331  0.3089  0.6128  0.6112
  132DOPC  H16X18208   3.588   0.112   4.240  0.6178 -1.6793 -0.9959
  132DOPC  H16Y18209   3.655  -0.023   4.316 -2.1967 -2.3676  0.1301
  132DOPC  C31718210   3.444  -0.039   4.307 -1.2508  0.7310  0.1275
  132DOPC  H17X18211   3.431  -0.105   4.396 -0.0640  1.7939  1.1288
  132DOPC  H17Y18212   3.358   0.029   4.294 -1.3141  0.7941  0.8475
  132DOPC  C31818213   3.465  -0.129   4.180  0.3645  0.3841 -0.5910
  132DOPC  H18X18214   3.543  -0.202   4.207 -1.6794 -1.3785  0.9030
  132DOPC  H18Y18215   3.363  -0.173   4.175 -0.0251  1.3301 -1.5497
  132DOPC  H18Z18216   3.496  -0.066   4.093  0.7043  0.9468 -0.0684
  133DOPC     N18217   5.440   4.998   6.083 -0.3199 -0.1091 -0.6332
  133DOPC   C1218218   5.417   5.145   6.096 -1.0131  0.5285  0.0497
  133DOPC  H12A18219   5.478   5.185   6.176 -0.5505  1.0120 -0.5372
  133DOPC  H12B18220   5.312   5.165   6.110 -0.4102  4.4923  0.1705
  133DOPC   C1318221   5.421   4.941   6.215  0.5542  0.2292 -0.4599
  133DOPC  H13A18222   5.499   4.983   6.276 -0.4980  1.4059  0.1174
  133DOPC  H13B18223   5.329   4.959   6.270  0.8218  0.1428  0.0167
  133DOPC  H13C18224   5.436   4.834   6.216  2.7606  0.4068 -3.1335
  133DOPC   C1418225   5.586   4.961   6.039 -0.2428 -0.1436  0.1638
  133DOPC  H14A18226   5.604   4.855   6.043 -0.3042 -0.1831 -0.4890
  133DOPC  H14B18227   5.607   4.997   5.939 -0.9683  1.5559  0.5850
  133DOPC  H14C18228   5.655   5.017   6.100 -2.5010  0.8857  1.9697
  133DOPC   C1518229   5.348   4.929   5.986 -0.0594  0.0986  0.1293
  133DOPC  H15A18230   5.366   4.961   5.885  0.5892  1.1344  0.5662
  133DOPC  H15B18231   5.247   4.961   6.005  0.6897  4.0722 -1.6519
  133DOPC  H15C18232   5.365   4.822   5.982 -0.9912 -0.1274  1.6120
  133DOPC   C1118233   5.450   5.234   5.972 -0.1867  0.8941  0.2016
  133DOPC  H11A18234   5.558   5.226   5.947 -0.8408 -1.3345 -2.3222
  133DOPC  H11B18235   5.403   5.201   5.877  1.9392 -3.6890  0.4779
  133DOPC     P18236   5.498   5.479   6.055 -0.5062 -0.2415  0.3995
  133DOPC   O1318237   5.590   5.417   6.149 -0.5783 -0.0348 -0.4691
  133DOPC   O1418238   5.416   5.586   6.110 -0.3986 -0.1153 -0.3270
  133DOPC   O1218239   5.407   5.366   6.003 -0.0687  0.2031  0.3364
  133DOPC   O1118240   5.577   5.525   5.927 -0.2571 -0.6437  0.4149
  133DOPC    C118241   5.493   5.571   5.819  0.4139  0.1243  0.9410
  133DOPC    HA18242   5.468   5.678   5.832  0.1456  0.3199 -0.9624
  133DOPC    HB18243   5.396   5.516   5.813  0.7933 -0.3654 -1.1354
  133DOPC    C218244   5.566   5.553   5.678 -0.4844 -0.1328 -0.5365
  133DOPC    HS18245   5.508   5.621   5.611 -1.5630  0.0459  0.5359
  133DOPC   O2118246   5.570   5.419   5.624  0.8467 -0.5887  0.8679
  133DOPC   C2118247   5.459   5.365   5.592 -0.3497  0.0680 -0.2150
  133DOPC   O2218248   5.343   5.406   5.605 -0.8597  0.5084  0.2035
  133DOPC   C2218249   5.498   5.228   5.547  0.0800  0.3045  0.0051
  133DOPC   H2R18250   5.472   5.156   5.627  1.9596 -0.5304 -0.0930
  133DOPC   H2S18251   5.608   5.220   5.535  0.4175  1.5389  1.9156
  133DOPC    C318252   5.711   5.608   5.681 -0.7739 -0.4141 -0.1987
  133DOPC    HX18253   5.790   5.529   5.682 -0.8078 -0.4656 -0.9775
  133DOPC    HY18254   5.728   5.662   5.776  1.3133  0.6851 -1.1233
  133DOPC   O3118255   5.739   5.703   5.571  0.1141  0.5772 -0.9147
  133DOPC   C3118256   5.860   5.706   5.535 -0.0778  0.8255  0.6372
  133DOPC   O3218257   5.949   5.629   5.564 -0.2124 -0.3484 -0.2353
  133DOPC   C3218258   5.878   5.842   5.460  0.3350  0.0569  0.7292
  133DOPC   H2X18259   5.779   5.892   5.458 -0.6727 -1.9055  0.1224
  133DOPC   H2Y18260   5.947   5.904   5.522  0.6806  1.3394 -0.8614
  133DOPC   C2318261   5.433   5.204   5.412 -0.5465  0.2481  0.9689
  133DOPC   H3R18262   5.323   5.193   5.409 -0.3904 -1.4832 -1.2155
  133DOPC   H3S18263   5.467   5.103   5.378  0.9469  0.9751  0.2112
  133DOPC   C2418264   5.494   5.299   5.303 -0.1952 -0.5283 -1.0432
  133DOPC   H4R18265   5.602   5.321   5.316 -0.3187  3.1451 -4.3176
  133DOPC   H4S18266   5.447   5.398   5.325  3.1464  0.6472  1.5508
  133DOPC   C2518267   5.463   5.249   5.167 -0.0928 -0.3979  0.3633
  133DOPC   H5R18268   5.354   5.228   5.160 -0.4575  1.4505  0.0418
  133DOPC   H5S18269   5.522   5.161   5.135  0.9194  0.6558 -0.7559
  133DOPC   C2618270   5.497   5.358   5.065 -0.3287 -0.0623 -0.7531
  133DOPC   H6R18271   5.589   5.417   5.081 -1.6688  1.6477  1.2651
  133DOPC   H6S18272   5.417   5.436   5.065 -1.7030 -1.3557  1.2660
  133DOPC   C2718273   5.501   5.301   4.926  0.5289 -0.3135  0.4335
  133DOPC   H7R18274   5.572   5.217   4.914  1.1901  0.2070  0.6058
  133DOPC   H7S18275   5.530   5.382   4.855 -0.9559 -1.2140 -1.2921
  133DOPC   C2818276   5.356   5.245   4.893 -0.1374  0.3099 -0.1935
  133DOPC   H8R18277   5.280   5.305   4.949  0.2689  0.5540  0.1015
  133DOPC   H8S18278   5.355   5.142   4.934  0.4162  1.0774  1.8645
  133DOPC   C2918279   5.337   5.257   4.739 -0.1738 -0.0255 -1.0420
  133DOPC   H9R18280   5.302   5.357   4.709 -0.3131  0.4531  0.6058
  133DOPC  C21018281   5.346   5.160   4.646  0.0275  0.3160 -0.4204
  133DOPC  H10R18282   5.323   5.175   4.539  0.8349 -1.1616 -0.8329
  133DOPC  C21118283   5.372   5.012   4.678 -0.5391  0.0655 -0.3887
  133DOPC  H11R18284   5.281   4.949   4.672 -1.4147  0.7097  3.4261
  133DOPC  H11S18285   5.396   4.999   4.786 -0.0212 -0.9882 -0.6185
  133DOPC  C21218286   5.481   4.946   4.588  0.1712  0.4996 -0.5328
  133DOPC  H12R18287   5.444   4.935   4.483  0.4206  2.0030 -0.7924
  133DOPC  H12S18288   5.494   4.843   4.629  1.3955  0.5467 -0.7891
  133DOPC  C21318289   5.614   5.026   4.586 -0.3970  0.1077 -0.7413
  133DOPC  H13R18290   5.647   5.053   4.689  0.5454  1.3060 -1.3255
  133DOPC  H13S18291   5.609   5.128   4.543  2.4075  0.4061 -0.5359
  133DOPC  C21418292   5.722   4.946   4.516 -0.2057  0.0090 -0.7981
  133DOPC  H14R18293   5.752   4.852   4.567 -0.2576  0.9281  1.0093
  133DOPC  H14S18294   5.819   4.999   4.514  0.9280 -1.9907 -1.8241
  133DOPC  C21518295   5.691   4.913   4.361  0.3475 -0.1443  0.3387
  133DOPC  H15R18296   5.603   4.847   4.349  1.5923 -1.7741 -0.3312
  133DOPC  H15S18297   5.782   4.863   4.320  0.5431  0.4748  0.0076
  133DOPC  C21618298   5.689   5.035   4.275  0.4067 -0.6892 -0.5787
  133DOPC  H16R18299   5.757   5.108   4.322 -0.1411 -0.7776  0.3817
  133DOPC  H16S18300   5.585   5.075   4.275  0.8149  0.3838 -0.6759
  133DOPC  C21718301   5.732   5.001   4.130 -0.2841  0.0189 -0.5159
  133DOPC  H17R18302   5.667   4.917   4.096  1.1461 -1.5544  0.4857
  133DOPC  H17S18303   5.833   4.955   4.132 -0.3918 -0.2548 -1.1464
  133DOPC  C21818304   5.733   5.118   4.040 -0.0287  0.8821 -0.2698
  133DOPC  H18R18305   5.630   5.153   4.014 -0.2930  1.9038  1.9099
  133DOPC  H18S18306   5.790   5.089   3.950 -1.6103  0.8170 -1.2860
  133DOPC  H18T18307   5.784   5.202   4.091  0.1082 -0.7379  2.5048
  133DOPC   C3318308   5.938   5.821   5.324  1.5666 -0.0495 -0.2349
  133DOPC   H3X18309   6.039   5.778   5.339  1.9172  0.8275 -0.0150
  133DOPC   H3Y18310   5.955   5.912   5.262  1.0589  0.2950  0.1128
  133DOPC   C3418311   5.854   5.727   5.231 -0.2571  0.5975  0.7893
  133DOPC   H4X18312   5.813   5.639   5.285  1.0757 -2.1446 -2.3543
  133DOPC   H4Y18313   5.930   5.683   5.163  0.8255  2.9378  0.3810
  133DOPC   C3518314   5.745   5.807   5.154 -0.7863 -0.3151  0.2188
  133DOPC   H5X18315   5.795   5.893   5.106 -1.6515 -1.2638 -2.6039
  133DOPC   H5Y18316   5.674   5.843   5.231  0.8348  2.5873  0.4820
  133DOPC   C3618317   5.662   5.731   5.059 -0.1744 -0.0741  0.1768
  133DOPC   H6X18318   5.729   5.684   4.984  0.0683 -0.5968  0.7083
  133DOPC   H6Y18319   5.606   5.649   5.110  2.1311 -2.2919 -0.6386
  133DOPC   C3718320   5.569   5.830   4.980  0.2076  0.1293  0.1213
  133DOPC   H7X18321   5.478   5.849   5.041 -0.5032 -0.2456 -0.7971
  133DOPC   H7Y18322   5.628   5.922   4.956  3.8119 -2.0733 -0.1192
  133DOPC   C3818323   5.513   5.780   4.842 -0.0204  0.4486 -0.0689
  133DOPC   H8X18324   5.599   5.752   4.777 -0.6256 -0.5121 -0.4794
  133DOPC   H8Y18325   5.462   5.863   4.789 -1.5316  0.3211  1.1460
  133DOPC   C3918326   5.429   5.660   4.872  0.2759  0.6219 -0.3534
  133DOPC   H9X18327   5.486   5.583   4.925 -0.3175  0.9099  0.7310
  133DOPC  C31018328   5.300   5.635   4.825  0.1382 -0.3898  0.3338
  133DOPC  H10X18329   5.252   5.536   4.828 -0.2460 -0.2999 -1.5527
  133DOPC  C31118330   5.213   5.732   4.748  0.5327 -0.4726 -0.0104
  133DOPC  H11X18331   5.248   5.834   4.779 -0.5929 -0.6699  2.1112
  133DOPC  H11Y18332   5.106   5.733   4.776  0.1873 -1.1401 -1.2463
  133DOPC  C31218333   5.228   5.716   4.602  0.3027 -0.2252  0.3320
  133DOPC  H12X18334   5.209   5.609   4.579  0.7558  0.0900 -1.6468
  133DOPC  H12Y18335   5.330   5.732   4.561 -0.2716  0.1385 -1.0061
  133DOPC  C31318336   5.133   5.813   4.520 -0.4310  0.2995 -0.9612
  133DOPC  H13X18337   5.027   5.795   4.547 -0.8796  0.5672 -2.4197
  133DOPC  H13Y18338   5.153   5.917   4.555 -0.1560  0.1352 -0.6193
  133DOPC  C31418339   5.160   5.806   4.369  0.2047 -0.1161 -0.1925
  133DOPC  H14X18340   5.126   5.909   4.343  1.7102  0.7445  1.0378
  133DOPC  H14Y18341   5.268   5.783   4.356  0.3374 -0.5888  1.5440
  133DOPC  C31518342   5.075   5.709   4.290 -0.1690 -0.2038 -0.2983
  133DOPC  H15X18343   5.091   5.604   4.324 -2.3821 -0.6835 -0.6178
  133DOPC  H15Y18344   5.106   5.712   4.183 -1.7486  0.7565 -0.7573
  133DOPC  C31618345   4.922   5.739   4.302 -0.0553  0.1867  0.0865
  133DOPC  H16X18346   4.889   5.734   4.408 -2.1077  2.4043 -0.3637
  133DOPC  H16Y18347   4.907   5.844   4.268 -0.2887 -0.1517 -0.9093
  133DOPC  C31718348   4.833   5.651   4.211  0.6695 -0.4349  0.4165
  133DOPC  H17X18349   4.882   5.643   4.111  0.1301  0.8484  0.0293
  133DOPC  H17Y18350   4.828   5.548   4.251  2.1365 -0.4331  0.6658
  133DOPC  C31818351   4.699   5.716   4.187  0.2670 -0.3576  0.6086
  133DOPC  H18X18352   4.704   5.801   4.116 -2.6808 -0.5165  0.0892
  133DOPC  H18Y18353   4.632   5.637   4.149  2.4896 -1.2689 -1.6321
  133DOPC  H18Z18354   4.654   5.751   4.283  0.4401  0.4490  0.4053
  134DOPC     N18355   8.435   2.654   6.648 -0.5134  0.2080 -0.2932
  134DOPC   C1218356   8.312   2.715   6.708  0.4737  0.4476 -0.1810
  134DOPC  H12A18357   8.340   2.712   6.812  1.8073 -2.3835 -0.5310
  134DOPC  H12B18358   8.227   2.648   6.699  1.4407 -0.4820 -3.5305
  134DOPC   C1318359   8.422   2.673   6.495 -0.5049  0.3232  0.0785
  134DOPC  H13A18360   8.515   2.643   6.448 -0.8762 -0.1079 -0.3974
  134DOPC  H13B18361   8.347   2.613   6.445  1.1039  0.5947 -2.8830
  134DOPC  H13C18362   8.411   2.778   6.476  0.9906  0.4201 -0.3803
  134DOPC   C1418363   8.452   2.511   6.692  0.1204  0.2490  0.5446
  134DOPC  H14A18364   8.534   2.469   6.637  1.0564  0.9562  1.3663
  134DOPC  H14B18365   8.486   2.503   6.795 -0.6487 -3.4842  0.6476
  134DOPC  H14C18366   8.363   2.450   6.681  0.0360  0.2431  1.1785
  134DOPC   C1518367   8.556   2.737   6.682 -0.8536  0.2272 -0.0400
  134DOPC  H15A18368   8.520   2.839   6.686  0.4975  0.6927  1.7717
  134DOPC  H15B18369   8.629   2.737   6.602 -0.2119  1.2940  0.5240
  134DOPC  H15C18370   8.592   2.715   6.782  0.1388 -1.3745 -0.7131
  134DOPC   C1118371   8.271   2.851   6.677 -0.4349 -0.1756  0.5540
  134DOPC  H11A18372   8.278   2.871   6.568 -0.0262  2.1442  0.9447
  134DOPC  H11B18373   8.163   2.866   6.696 -0.7374  0.9080 -1.7177
  134DOPC     P18374   8.328   3.103   6.713 -0.3355 -0.5351  0.3626
  134DOPC   O1318375   8.444   3.174   6.765  0.0921 -0.3786 -0.1303
  134DOPC   O1418376   8.193   3.150   6.753 -0.0300  0.0094 -0.4251
  134DOPC   O1218377   8.338   2.958   6.756 -0.1959 -0.2271 -0.0506
  134DOPC   O1118378   8.333   3.100   6.553  0.0376 -0.8152 -0.4578
  134DOPC    C118379   8.213   3.113   6.477  0.4312 -0.0823  0.0949
  134DOPC    HA18380   8.176   3.218   6.480  0.9460  0.1010  0.1713
  134DOPC    HB18381   8.134   3.047   6.517 -0.0771  0.6550  0.3401
  134DOPC    C218382   8.235   3.058   6.334 -0.3173  0.2400  0.2091
  134DOPC    HS18383   8.234   2.947   6.343 -0.6303  0.0515 -1.8371
  134DOPC   O2118384   8.361   3.106   6.285  0.2849 -0.0148  0.0224
  134DOPC   C2118385   8.421   3.022   6.207 -0.2302  0.6685  0.2923
  134DOPC   O2218386   8.389   2.910   6.176  0.6268 -0.3126 -0.5012
  134DOPC   C2218387   8.538   3.100   6.140 -0.6320  0.1253 -0.3094
  134DOPC   H2R18388   8.625   3.039   6.172 -1.7903 -0.2254  2.4306
  134DOPC   H2S18389   8.547   3.199   6.188 -1.2695  0.0608 -0.0459
  134DOPC    C318390   8.118   3.091   6.230  0.4208  0.2800 -0.1356
  134DOPC    HX18391   8.099   3.198   6.252 -0.0192 -0.1062  1.5602
  134DOPC    HY18392   8.029   3.032   6.261  0.1140  1.5496  1.5107
  134DOPC   O3118393   8.151   3.074   6.090  0.3619 -0.0970 -0.0884
  134DOPC   C3118394   8.105   2.955   6.038 -0.0010 -0.2855 -0.2777
  134DOPC   O3218395   8.049   2.870   6.107  0.0244  0.6162 -0.0176
  134DOPC   C3218396   8.134   2.936   5.897 -0.7116  0.5229 -0.4443
  134DOPC   H2X18397   8.066   3.014   5.855 -0.8735  1.8443  2.0889
  134DOPC   H2Y18398   8.236   2.974   5.874 -0.5372  0.5228  0.3011
  134DOPC   C2318399   8.527   3.118   5.982 -0.3694  0.6381 -0.2425
  134DOPC   H3R18400   8.436   3.178   5.961 -2.1112 -1.0968  1.8445
  134DOPC   H3S18401   8.512   3.015   5.944  1.2575  0.4497 -0.4243
  134DOPC   C2418402   8.653   3.185   5.926 -0.9829 -0.1098 -0.3054
  134DOPC   H4R18403   8.747   3.131   5.948 -2.7800 -4.6551 -2.5916
  134DOPC   H4S18404   8.667   3.287   5.967 -0.0117 -1.2724  2.4469
  134DOPC   C2518405   8.645   3.199   5.771 -0.3134  0.2021 -0.5514
  134DOPC   H5R18406   8.730   3.258   5.732  0.8367 -1.0838 -0.0797
  134DOPC   H5S18407   8.562   3.267   5.742 -1.3128 -0.3429  0.8678
  134DOPC   C2618408   8.639   3.063   5.696  0.4676 -0.1120  0.0463
  134DOPC   H6R18409   8.539   3.020   5.720  0.0351  0.8261 -0.0389
  134DOPC   H6S18410   8.729   3.008   5.731  2.9231  3.2566 -0.4381
  134DOPC   C2718411   8.642   3.091   5.545  0.4877  0.0115 -0.0267
  134DOPC   H7R18412   8.747   3.116   5.522  0.6196  0.3990  0.9496
  134DOPC   H7S18413   8.582   3.178   5.512  0.4702  0.7764  1.8679
  134DOPC   C2818414   8.600   2.974   5.455 -0.0173 -0.2995 -0.3143
  134DOPC   H8R18415   8.501   2.924   5.469  0.1741 -0.4689  0.4832
  134DOPC   H8S18416   8.667   2.889   5.477 -0.1869 -0.2149  0.5586
  134DOPC   C2918417   8.618   3.021   5.314  0.4584 -0.2170  0.3748
  134DOPC   H9R18418   8.603   3.128   5.295  0.7867 -0.3770 -0.9030
  134DOPC  C21018419   8.652   2.946   5.209 -0.3088 -0.1349  0.7184
  134DOPC  H10R18420   8.667   2.996   5.111 -2.4729  1.0723  0.9529
  134DOPC  C21118421   8.679   2.799   5.227  0.0369  0.8450  0.6967
  134DOPC  H11R18422   8.658   2.736   5.138  4.0560 -1.2452  0.9634
  134DOPC  H11S18423   8.628   2.756   5.316 -0.8501 -1.5544 -0.8522
  134DOPC  C21218424   8.830   2.761   5.254 -0.0609  0.6770  0.2111
  134DOPC  H12R18425   8.841   2.798   5.358 -0.4402 -0.4543  0.6766
  134DOPC  H12S18426   8.892   2.821   5.184 -0.0427 -0.7448 -1.0489
  134DOPC  C21318427   8.870   2.620   5.229  0.1803  0.6243  0.3858
  134DOPC  H13R18428   8.856   2.597   5.121 -1.2788  0.7221  0.5415
  134DOPC  H13S18429   8.799   2.551   5.279 -0.0282  0.9071  0.4773
  134DOPC  C21418430   9.014   2.595   5.284 -0.7572  0.2026 -0.3261
  134DOPC  H14R18431   9.090   2.616   5.206  0.4480  0.0614  0.7847
  134DOPC  H14S18432   9.030   2.485   5.287 -2.4800 -0.1367 -1.6383
  134DOPC  C21518433   9.047   2.654   5.421 -0.1613 -0.3769  0.3400
  134DOPC  H15R18434   9.051   2.765   5.419 -0.6777 -0.3289  1.5684
  134DOPC  H15S18435   9.144   2.614   5.458 -0.1208  0.7338  1.4920
  134DOPC  C21618436   8.951   2.618   5.537 -0.1494 -0.3313  0.6862
  134DOPC  H16R18437   8.970   2.516   5.575 -1.8972 -1.0353 -0.2309
  134DOPC  H16S18438   8.850   2.612   5.492  0.0632 -1.0886  0.3001
  134DOPC  C21718439   8.943   2.717   5.648  0.3409 -0.9543  0.6563
  134DOPC  H17R18440   8.869   2.668   5.716 -1.5478  0.4735 -0.2834
  134DOPC  H17S18441   8.898   2.817   5.631  0.0798 -1.1454  0.2016
  134DOPC  C21818442   9.082   2.740   5.710 -0.3202  0.6150  0.5153
  134DOPC  H18R18443   9.134   2.645   5.731 -2.4499 -1.4408 -2.5673
  134DOPC  H18S18444   9.045   2.796   5.798 -0.8135  0.8356  0.1766
  134DOPC  H18T18445   9.150   2.806   5.652  2.4028 -1.7837  0.7580
  134DOPC   C3318446   8.117   2.790   5.860  0.7188 -0.1845  0.1197
  134DOPC   H3X18447   8.021   2.746   5.896 -0.3159  0.2190 -2.0285
  134DOPC   H3Y18448   8.204   2.743   5.910  1.6125  0.3655 -0.8919
  134DOPC   C3418449   8.116   2.772   5.710  1.0320 -0.0204  0.3171
  134DOPC   H4X18450   8.219   2.803   5.681  0.2510  2.0717 -0.4276
  134DOPC   H4Y18451   8.036   2.840   5.674 -1.7988 -2.0051  2.4193
  134DOPC   C3518452   8.084   2.624   5.661 -0.6333 -0.4441 -0.1388
  134DOPC   H5X18453   8.010   2.580   5.730 -2.2135  0.4203 -1.2160
  134DOPC   H5Y18454   8.177   2.564   5.665  0.0851 -0.1450 -5.1732
  134DOPC   C3618455   8.035   2.620   5.514 -0.9605  0.0122  0.6784
  134DOPC   H6X18456   7.930   2.656   5.505 -1.9139 -2.6505  0.1165
  134DOPC   H6Y18457   8.103   2.688   5.458 -1.6941 -1.0682 -1.6702
  134DOPC   C3718458   8.039   2.477   5.452 -0.1406  0.0627 -0.0955
  134DOPC   H7X18459   8.138   2.428   5.468 -1.1658 -1.8031  0.8796
  134DOPC   H7Y18460   7.966   2.413   5.507 -1.7733  1.1847 -0.8766
  134DOPC   C3818461   8.008   2.452   5.299 -0.0163  0.2968 -0.2637
  134DOPC   H8X18462   8.090   2.501   5.243  1.0671  0.1191  1.1032
  134DOPC   H8Y18463   7.907   2.496   5.284  0.1055  0.6296 -0.1166
  134DOPC   C3918464   8.006   2.305   5.279 -0.0971  0.1385 -0.1365
  134DOPC   H9X18465   7.960   2.240   5.355 -1.0325 -1.6340 -2.1364
  134DOPC  C31018466   8.062   2.233   5.178 -0.4398 -0.7096  0.5076
  134DOPC  H10X18467   8.056   2.123   5.184  0.0639 -0.6873  1.7054
  134DOPC  C31118468   8.141   2.290   5.063  0.2262 -0.0225  0.0551
  134DOPC  H11X18469   8.238   2.240   5.040 -0.9689 -1.4832 -2.1550
  134DOPC  H11Y18470   8.153   2.400   5.074 -0.7478 -0.0617  1.9409
  134DOPC  C31218471   8.068   2.262   4.927  1.0456  0.0459 -1.2136
  134DOPC  H12X18472   8.115   2.317   4.842  1.9416 -0.5120 -1.0930
  134DOPC  H12Y18473   7.961   2.292   4.935  1.6709  2.6776 -1.5164
  134DOPC  C31318474   8.075   2.118   4.874  0.5530 -0.1149  0.5861
  134DOPC  H13X18475   8.180   2.084   4.864 -0.0109 -1.3443 -1.8382
  134DOPC  H13Y18476   8.022   2.050   4.945 -1.8853  0.8656 -0.1961
  134DOPC  C31418477   8.012   2.110   4.736  0.3899  0.0303  0.4700
  134DOPC  H14X18478   7.935   2.189   4.730  1.1155  0.7361  0.2471
  134DOPC  H14Y18479   8.093   2.145   4.669  0.2821 -2.4801 -1.0968
  134DOPC  C31518480   7.965   1.971   4.696  0.5867 -0.9739 -0.1757
  134DOPC  H15X18481   7.895   1.940   4.777 -1.0116  3.3077  0.3302
  134DOPC  H15Y18482   8.054   1.904   4.704  0.9261 -0.7272 -1.6730
  134DOPC  C31618483   7.908   1.958   4.555  0.2933  0.1214 -0.3038
  134DOPC  H16X18484   7.827   2.033   4.541 -0.2557 -0.2932  0.5453
  134DOPC  H16Y18485   7.978   1.973   4.471 -2.3669  1.1165 -2.4925
  134DOPC  C31718486   7.831   1.824   4.535  0.1519 -0.6958  0.2712
  134DOPC  H17X18487   7.913   1.749   4.536  0.5088 -0.3448 -0.8154
  134DOPC  H17Y18488   7.762   1.808   4.621  0.0928 -1.0879  0.1505
  134DOPC  C31818489   7.757   1.813   4.404 -1.0679  0.4883 -0.3889
  134DOPC  H18X18490   7.670   1.881   4.402 -1.6838 -0.2165  0.9174
  134DOPC  H18Y18491   7.818   1.853   4.321 -0.1480 -0.1501 -0.0444
  134DOPC  H18Z18492   7.738   1.705   4.383  0.1717 -0.0703  1.1035
  135DOPC     N18493   8.757   4.259   6.447 -0.3473 -0.4102  0.5016
  135DOPC   C1218494   8.855   4.153   6.407  0.0585 -0.3497  0.8532
  135DOPC  H12A18495   8.936   4.200   6.354 -0.5434  0.1353  0.3418
  135DOPC  H12B18496   8.816   4.103   6.320 -2.4547  1.3206  0.8856
  135DOPC   C1318497   8.626   4.199   6.497  0.0331 -0.2780  0.6268
  135DOPC  H13A18498   8.659   4.151   6.588  4.9770 -0.5209 -1.0133
  135DOPC  H13B18499   8.543   4.264   6.521 -0.6165 -1.3408  1.3757
  135DOPC  H13C18500   8.592   4.119   6.433 -0.7963  0.7533 -0.2621
  135DOPC   C1418501   8.717   4.342   6.331 -0.0207  0.3538  0.6278
  135DOPC  H14A18502   8.657   4.285   6.262  1.2048  0.4376 -0.5575
  135DOPC  H14B18503   8.655   4.420   6.374 -1.7497 -0.5028 -0.2126
  135DOPC  H14C18504   8.807   4.374   6.280  0.3535 -2.7850 -0.9156
  135DOPC   C1518505   8.817   4.344   6.552  0.1746 -0.2656  1.4801
  135DOPC  H15A18506   8.868   4.288   6.629  0.5994 -3.2449 -0.7789
  135DOPC  H15B18507   8.740   4.407   6.593 -1.6664  0.0366 -2.0590
  135DOPC  H15C18508   8.890   4.416   6.515 -0.7152  0.5791  1.3329
  135DOPC   C1118509   8.893   4.049   6.507  0.4208 -0.0362  0.0370
  135DOPC  H11A18510   8.994   4.009   6.485  1.8088  2.2778  1.6827
  135DOPC  H11B18511   8.902   4.089   6.610 -0.6280  0.3226  0.0021
  135DOPC     P18512   8.804   3.817   6.429 -0.3145  0.0199 -0.4724
  135DOPC   O1318513   8.683   3.734   6.434 -0.3333 -0.1363  0.3973
  135DOPC   O1418514   8.925   3.756   6.482  0.2831 -0.0730 -0.1858
  135DOPC   O1218515   8.788   3.951   6.516  0.1825  0.7159  0.0618
  135DOPC   O1118516   8.837   3.864   6.284 -0.5946  0.2283 -0.4139
  135DOPC    C118517   8.740   3.911   6.194 -0.3596 -0.0831  1.0469
  135DOPC    HA18518   8.783   4.001   6.145  1.4604  0.3563  3.2528
  135DOPC    HB18519   8.646   3.927   6.251 -0.4501  0.3832  0.7764
  135DOPC    C218520   8.710   3.806   6.089 -1.1359 -0.0590  0.0567
  135DOPC    HS18521   8.714   3.709   6.144  0.5027  0.4279  0.8501
  135DOPC   O2118522   8.822   3.810   5.990 -0.0628  0.2836 -0.0297
  135DOPC   C2118523   8.844   3.695   5.931 -0.2130  0.0351 -0.3625
  135DOPC   O2218524   8.799   3.586   5.955  0.3743  0.3134 -0.4546
  135DOPC   C2218525   8.953   3.718   5.819  0.5711 -0.4019 -0.1954
  135DOPC   H2R18526   9.045   3.750   5.872  0.8485 -0.1666 -0.8019
  135DOPC   H2S18527   8.924   3.801   5.751 -1.4745 -0.7837  0.1409
  135DOPC    C318528   8.572   3.830   6.022  0.5854  0.2248  0.2736
  135DOPC    HX18529   8.580   3.923   5.962 -1.5737 -0.1856 -0.7276
  135DOPC    HY18530   8.499   3.852   6.102 -0.8795  0.9328 -1.2021
  135DOPC   O3118531   8.534   3.718   5.934  0.6526 -0.1828 -0.1272
  135DOPC   C3118532   8.490   3.611   5.991 -0.4214 -0.1836 -0.4443
  135DOPC   O3218533   8.482   3.587   6.116  0.4798  0.1432  0.1652
  135DOPC   C3218534   8.452   3.506   5.890 -0.4885 -0.0474  1.3197
  135DOPC   H2X18535   8.493   3.527   5.789 -0.8752 -0.9040  0.9838
  135DOPC   H2Y18536   8.487   3.410   5.933 -0.5672 -0.8656 -0.3837
  135DOPC   C2318537   9.002   3.596   5.728 -0.1967 -0.0452 -0.4974
  135DOPC   H3R18538   9.026   3.507   5.790 -1.6873  0.5813  1.0595
  135DOPC   H3S18539   9.093   3.622   5.670 -0.6924  0.5723 -1.0077
  135DOPC   C2418540   8.891   3.562   5.627 -0.2331 -0.4960 -0.0663
  135DOPC   H4R18541   8.848   3.653   5.580  0.5052 -1.2974 -2.4078
  135DOPC   H4S18542   8.811   3.511   5.684  0.5168 -1.4630  0.1337
  135DOPC   C2518543   8.946   3.475   5.524 -0.1871  0.4210  0.0017
  135DOPC   H5R18544   8.936   3.370   5.560 -4.5773  0.1810 -1.3691
  135DOPC   H5S18545   9.048   3.502   5.488  0.4765  0.5775  1.8774
  135DOPC   C2618546   8.866   3.485   5.392 -0.9085  0.0145 -0.3501
  135DOPC   H6R18547   8.892   3.577   5.337 -0.1317 -0.7364 -1.2664
  135DOPC   H6S18548   8.759   3.497   5.423 -1.0945 -0.2161 -0.8902
  135DOPC   C2718549   8.880   3.358   5.302 -0.0360 -0.6515  0.5655
  135DOPC   H7R18550   8.850   3.268   5.359 -0.0561 -0.6336  0.5838
  135DOPC   H7S18551   8.989   3.355   5.280  0.3730 -0.5701  2.4317
  135DOPC   C2818552   8.796   3.358   5.177  0.0296  0.2352  0.1820
  135DOPC   H8R18553   8.685   3.367   5.189  0.0310 -1.3068  1.7030
  135DOPC   H8S18554   8.814   3.259   5.130 -1.7678  0.2517 -0.6226
  135DOPC   C2918555   8.827   3.465   5.079 -0.0490 -0.4152  0.2646
  135DOPC   H9R18556   8.838   3.560   5.132  2.4259 -1.2589  1.4006
  135DOPC  C21018557   8.846   3.453   4.947 -0.0774 -0.1783  0.2724
  135DOPC  H10R18558   8.869   3.545   4.892 -1.9254  1.0870  1.4967
  135DOPC  C21118559   8.820   3.328   4.864 -0.3172  0.6113 -0.3616
  135DOPC  H11R18560   8.765   3.356   4.771  1.1484 -1.2218 -1.8463
  135DOPC  H11S18561   8.771   3.248   4.923  1.2095  2.3710  3.6162
  135DOPC  C21218562   8.952   3.270   4.799 -0.2971 -0.0450 -0.6509
  135DOPC  H12R18563   9.022   3.231   4.876 -0.0226  1.5672 -0.0410
  135DOPC  H12S18564   9.007   3.343   4.735  0.9206 -1.7811 -1.6466
  135DOPC  C21318565   8.941   3.133   4.724  0.1667  0.0742 -0.6363
  135DOPC  H13R18566   8.874   3.165   4.641  0.1922  0.8320 -0.3679
  135DOPC  H13S18567   8.903   3.065   4.804  1.7423 -0.9820 -0.7404
  135DOPC  C21418568   9.072   3.073   4.661  0.1912  0.9016 -0.0085
  135DOPC  H14R18569   9.150   3.063   4.740 -0.8687  0.0908  0.9630
  135DOPC  H14S18570   9.120   3.151   4.597 -1.7042  2.4158  0.3282
  135DOPC  C21518571   9.062   2.940   4.581 -0.1131 -0.0578  0.3211
  135DOPC  H15R18572   8.995   2.966   4.496  2.6621 -0.7873 -2.2539
  135DOPC  H15S18573   9.014   2.860   4.641 -1.8208  0.6322 -0.0522
  135DOPC  C21618574   9.201   2.889   4.543 -0.2687  0.6635 -0.0215
  135DOPC  H16R18575   9.247   2.854   4.638 -1.9077  0.6440  0.8105
  135DOPC  H16S18576   9.253   2.974   4.494 -1.8078  0.0813 -2.8546
  135DOPC  C21718577   9.204   2.775   4.445 -0.0644  0.6763  0.0667
  135DOPC  H17R18578   9.131   2.694   4.463  0.3851 -0.1588 -1.6168
  135DOPC  H17S18579   9.307   2.735   4.439 -0.7446 -1.2481  0.5316
  135DOPC  C21818580   9.159   2.826   4.305  0.9813  0.1612  0.0388
  135DOPC  H18R18581   9.062   2.878   4.298  0.6986 -0.4519 -0.7411
  135DOPC  H18S18582   9.155   2.745   4.228  3.4422 -0.3894  0.4067
  135DOPC  H18T18583   9.246   2.889   4.278  0.4667  0.9123  0.1150
  135DOPC   C3318584   8.294   3.502   5.877 -0.0207  0.2462  0.1405
  135DOPC   H3X18585   8.268   3.596   5.822  1.8571 -0.0599 -1.3485
  135DOPC   H3Y18586   8.248   3.514   5.977  0.8801  1.2238  0.4605
  135DOPC   C3418587   8.240   3.380   5.805  0.6771 -0.0748  0.8267
  135DOPC   H4X18588   8.130   3.394   5.813  0.2125 -2.3593 -0.7634
  135DOPC   H4Y18589   8.279   3.289   5.855  2.0469 -0.1838 -0.3699
  135DOPC   C3518590   8.272   3.378   5.652  0.4455 -0.1186  0.1847
  135DOPC   H5X18591   8.381   3.398   5.644  0.8703 -1.8529  1.2655
  135DOPC   H5Y18592   8.225   3.467   5.605 -0.6330 -0.6109  0.3221
  135DOPC   C3618593   8.234   3.250   5.573 -0.0142 -0.5711 -0.3220
  135DOPC   H6X18594   8.267   3.254   5.467 -1.4845 -1.7125 -0.8745
  135DOPC   H6Y18595   8.297   3.165   5.609  2.5274  0.5427 -1.8761
  135DOPC   C3718596   8.081   3.211   5.584 -0.0493 -0.2744 -0.0830
  135DOPC   H7X18597   8.065   3.190   5.691  2.9108 -0.7147  0.3637
  135DOPC   H7Y18598   8.017   3.298   5.558  0.4098 -0.1493 -0.8426
  135DOPC   C3818599   8.035   3.092   5.508 -0.1121  0.1585 -0.4560
  135DOPC   H8X18600   7.929   3.076   5.539 -0.1422  2.4696  0.8414
  135DOPC   H8Y18601   8.102   3.005   5.525  0.5492  0.7106 -0.1869
  135DOPC   C3918602   8.029   3.124   5.360 -0.0598  0.6195 -0.1510
  135DOPC   H9X18603   7.950   3.195   5.330 -1.2953 -0.1626  1.1322
  135DOPC  C31018604   8.109   3.073   5.264  0.6247  0.1045 -0.4610
  135DOPC  H10X18605   8.106   3.107   5.160  0.3338 -2.1045 -1.2334
  135DOPC  C31118606   8.210   2.956   5.279 -0.2989 -0.0713 -0.3702
  135DOPC  H11X18607   8.227   2.917   5.382  0.2121 -0.4711 -0.5971
  135DOPC  H11Y18608   8.312   2.985   5.246 -0.1346 -0.3193 -0.0804
  135DOPC  C31218609   8.171   2.829   5.195  0.1824 -0.7653 -0.3443
  135DOPC  H12X18610   8.061   2.826   5.203  0.1072  2.2644  1.0471
  135DOPC  H12Y18611   8.213   2.739   5.246 -1.1705 -1.6887 -0.8060
  135DOPC  C31318612   8.208   2.843   5.049  0.6645 -0.1843 -0.0553
  135DOPC  H13X18613   8.168   2.937   5.005  0.3974 -1.0787 -1.8482
  135DOPC  H13Y18614   8.319   2.843   5.038  0.7901  1.1722  1.0019
  135DOPC  C31418615   8.154   2.726   4.965 -0.3688 -0.2746 -1.0972
  135DOPC  H14X18616   8.195   2.627   4.995 -0.8948 -0.8483 -2.2034
  135DOPC  H14Y18617   8.050   2.721   5.002  0.7052 -1.6951  2.0729
  135DOPC  C31518618   8.160   2.741   4.817 -0.8313  0.3229  0.4040
  135DOPC  H15X18619   8.255   2.790   4.786 -2.0329  2.3681 -0.2908
  135DOPC  H15Y18620   8.093   2.825   4.786 -0.4037  0.6929  0.4710
  135DOPC  C31618621   8.138   2.611   4.736 -0.2086  0.7596 -0.4050
  135DOPC  H16X18622   8.207   2.530   4.764  0.1718  0.9586 -0.7561
  135DOPC  H16Y18623   8.044   2.567   4.775  1.3252 -0.6241  1.9709
  135DOPC  C31718624   8.143   2.612   4.582 -0.5749  0.4284  0.4683
  135DOPC  H17X18625   8.077   2.695   4.549  2.8084  2.4349 -1.8478
  135DOPC  H17Y18626   8.248   2.631   4.551 -0.5170  3.2428  2.0283
  135DOPC  C31818627   8.095   2.482   4.518 -0.2769 -0.2619  0.1364
  135DOPC  H18X18628   8.104   2.483   4.407 -0.5322 -0.0753  0.1166
  135DOPC  H18Y18629   8.159   2.402   4.562  1.0565  1.6700  1.9139
  135DOPC  H18Z18630   7.989   2.475   4.548 -0.6337  2.3520 -0.3029
  136DOPC     N18631   7.893   1.262   6.549 -0.5565 -0.4645 -0.0679
  136DOPC   C1218632   7.772   1.180   6.503 -0.3733 -0.1111  0.5265
  136DOPC  H12A18633   7.689   1.233   6.547  1.5316  1.0455  2.9758
  136DOPC  H12B18634   7.783   1.080   6.543 -2.5678 -0.2981  0.7574
  136DOPC   C1318635   7.869   1.407   6.519 -0.2835  0.5078 -0.2117
  136DOPC  H13A18636   7.858   1.420   6.412  1.1193 -1.9127 -0.7006
  136DOPC  H13B18637   7.779   1.447   6.565 -0.4682  0.2833 -0.3735
  136DOPC  H13C18638   7.948   1.470   6.557  0.3432  0.4590 -1.3926
  136DOPC   C1418639   8.016   1.214   6.477 -0.4122 -0.4309 -0.6793
  136DOPC  H14A18640   8.040   1.110   6.496 -1.5851 -0.4028  1.2594
  136DOPC  H14B18641   8.002   1.220   6.370 -0.6087  0.6319 -0.5993
  136DOPC  H14C18642   8.103   1.275   6.499 -0.3348  0.1920 -2.5471
  136DOPC   C1518643   7.921   1.249   6.696  0.0325 -0.3889  0.2069
  136DOPC  H15A18644   8.013   1.300   6.723  1.1497 -1.3691 -1.5870
  136DOPC  H15B18645   7.945   1.146   6.717  0.2754 -1.4728 -4.3522
  136DOPC  H15C18646   7.838   1.286   6.755 -0.7426  1.0649 -1.6781
  136DOPC   C1118647   7.734   1.179   6.354  0.4397  0.9127 -0.1242
  136DOPC  H11A18648   7.830   1.146   6.308  0.5795  0.5202  0.4341
  136DOPC  H11B18649   7.652   1.108   6.330  0.8631 -0.2636  1.7171
  136DOPC     P18650   7.553   1.350   6.290  0.0662 -0.5449 -0.2387
  136DOPC   O1318651   7.549   1.490   6.242 -0.4786  0.8287  0.6159
  136DOPC   O1418652   7.460   1.308   6.395 -0.6198  0.1170 -0.5725
  136DOPC   O1218653   7.703   1.308   6.315 -0.0317 -0.4076 -0.5673
  136DOPC   O1118654   7.522   1.260   6.166 -0.4890  0.4128  0.5740
  136DOPC    C118655   7.607   1.272   6.051  0.3471 -0.0532 -0.2753
  136DOPC    HA18656   7.621   1.167   6.017 -1.9625 -0.6604  0.4697
  136DOPC    HB18657   7.707   1.314   6.076 -0.4512  0.6915  1.8827
  136DOPC    C218658   7.531   1.354   5.938 -0.3308  0.4039 -0.8566
  136DOPC    HS18659   7.520   1.457   5.978  2.7483  1.5786 -2.7443
  136DOPC   O2118660   7.402   1.294   5.918 -0.3160 -0.1565 -0.2237
  136DOPC   C2118661   7.303   1.370   5.861 -0.3322 -0.3425  0.0225
  136DOPC   O2218662   7.320   1.489   5.833  0.1234 -0.2909 -0.4914
  136DOPC   C2218663   7.175   1.290   5.834 -0.6127  0.4453  0.1339
  136DOPC   H2R18664   7.094   1.327   5.900 -1.6476 -0.0083 -0.8438
  136DOPC   H2S18665   7.184   1.182   5.859  1.1955  0.3895 -0.5843
  136DOPC    C318666   7.614   1.344   5.804  0.1786 -0.1553  0.0494
  136DOPC    HX18667   7.604   1.241   5.762 -0.0107 -0.1601  0.1074
  136DOPC    HY18668   7.720   1.364   5.831  0.0536 -0.3510  0.7032
  136DOPC   O3118669   7.566   1.436   5.698 -0.7099  0.0467  0.4591
  136DOPC   C3118670   7.584   1.566   5.726  0.6276  0.1318 -0.1273
  136DOPC   O3218671   7.650   1.614   5.816  0.2299 -0.4146 -0.0339
  136DOPC   C3218672   7.512   1.653   5.616  0.1465  0.2813  0.4252
  136DOPC   H2X18673   7.574   1.639   5.525 -0.4341  0.9009 -0.0741
  136DOPC   H2Y18674   7.410   1.613   5.600 -0.1651  1.2282 -0.0431
  136DOPC   C2318675   7.134   1.308   5.685 -0.1708  0.5754  0.1088
  136DOPC   H3R18676   7.124   1.417   5.666  1.5894  0.6392 -0.6251
  136DOPC   H3S18677   7.029   1.277   5.666  0.0368 -0.1571  0.1380
  136DOPC   C2418678   7.196   1.221   5.574 -0.7325  0.5362  0.4807
  136DOPC   H4R18679   7.122   1.209   5.491  0.0285 -1.4252  0.0362
  136DOPC   H4S18680   7.222   1.119   5.606  3.1465  0.6181 -1.8893
  136DOPC   C2518681   7.330   1.293   5.521  0.8009 -0.8603 -0.4806
  136DOPC   H5R18682   7.403   1.291   5.605  0.5635  0.4957 -0.2239
  136DOPC   H5S18683   7.298   1.397   5.496 -1.7958 -1.5633 -0.3472
  136DOPC   C2618684   7.379   1.219   5.398  0.7903 -0.5412  0.4648
  136DOPC   H6R18685   7.300   1.212   5.320  2.2127  0.8887 -1.1823
  136DOPC   H6S18686   7.406   1.116   5.429 -2.1773 -1.3669  0.6385
  136DOPC   C2718687   7.501   1.285   5.331 -0.3077  0.3221 -0.1726
  136DOPC   H7R18688   7.554   1.225   5.254  0.7248  0.4707  0.4000
  136DOPC   H7S18689   7.572   1.299   5.415  0.1634  1.5588 -0.7454
  136DOPC   C2818690   7.476   1.435   5.286  0.1306 -0.4372 -0.2244
  136DOPC   H8R18691   7.572   1.490   5.277 -0.7939  2.1756  3.2833
  136DOPC   H8S18692   7.414   1.484   5.365 -1.0118 -1.0925 -0.6955
  136DOPC   C2918693   7.396   1.430   5.151 -0.0710 -0.5375  0.1515
  136DOPC   H9R18694   7.300   1.377   5.156 -0.1411 -0.4311 -0.0531
  136DOPC  C21018695   7.439   1.474   5.029 -0.0732  0.3680  0.4251
  136DOPC  H10R18696   7.363   1.466   4.950 -0.0288  0.2043  0.3991
  136DOPC  C21118697   7.565   1.547   5.001 -0.0806  0.3918  1.0992
  136DOPC  H11R18698   7.631   1.550   5.091  0.0245 -2.2027  1.1953
  136DOPC  H11S18699   7.539   1.645   4.956  0.1861 -0.2801 -0.6051
  136DOPC  C21218700   7.638   1.477   4.888  0.1688  0.1022 -0.0388
  136DOPC  H12R18701   7.572   1.445   4.805  1.6981  0.5147 -1.4518
  136DOPC  H12S18702   7.679   1.389   4.943  0.0564 -0.2586 -0.5258
  136DOPC  C21318703   7.768   1.559   4.833 -0.1181 -0.4479  0.6108
  136DOPC  H13R18704   7.821   1.609   4.917 -0.0310  0.6552 -0.0864
  136DOPC  H13S18705   7.743   1.641   4.762 -0.1938 -1.2353 -0.2926
  136DOPC  C21418706   7.863   1.472   4.752 -0.1111 -0.0542 -0.1553
  136DOPC  H14R18707   7.884   1.378   4.807 -1.3184 -0.9417 -1.1540
  136DOPC  H14S18708   7.953   1.535   4.734  1.0509 -1.5334  0.2896
  136DOPC  C21518709   7.795   1.442   4.615  0.3925  0.2393 -0.1887
  136DOPC  H15R18710   7.759   1.541   4.579 -1.0574  0.7067  2.3001
  136DOPC  H15S18711   7.700   1.393   4.645  0.6126  1.5941  3.1256
  136DOPC  C21618712   7.872   1.357   4.513  0.2153  0.0961 -0.1000
  136DOPC  H16R18713   7.965   1.408   4.481 -0.0980  2.1318  1.9395
  136DOPC  H16S18714   7.811   1.352   4.420  1.7467 -2.7249 -1.0466
  136DOPC  C21718715   7.898   1.211   4.552 -0.2512 -0.3188  0.2877
  136DOPC  H17R18716   7.804   1.164   4.589 -2.4796  2.0515 -1.9357
  136DOPC  H17S18717   7.965   1.217   4.640 -0.3126  1.9902  0.2335
  136DOPC  C21818718   7.953   1.120   4.437 -0.1146 -0.6171  0.4316
  136DOPC  H18R18719   7.901   1.154   4.345 -1.4737 -1.0107  1.0141
  136DOPC  H18S18720   7.926   1.015   4.462 -0.2462 -0.8584 -0.6807
  136DOPC  H18T18721   8.061   1.138   4.421 -0.8256  3.1108 -1.1476
  136DOPC   C3318722   7.504   1.805   5.641  0.3850 -1.3007  0.1243
  136DOPC   H3X18723   7.612   1.831   5.653  0.3539 -0.4305 -1.2831
  136DOPC   H3Y18724   7.452   1.836   5.735  0.6470  0.8660 -0.3840
  136DOPC   C3418725   7.436   1.881   5.523  0.2721  0.1253  0.4027
  136DOPC   H4X18726   7.325   1.882   5.533  0.2608 -1.6898  0.7050
  136DOPC   H4Y18727   7.459   1.816   5.436  2.1725 -0.8199  1.5606
  136DOPC   C3518728   7.494   2.017   5.492  0.4380  1.0326 -0.1300
  136DOPC   H5X18729   7.596   2.010   5.448  1.0120 -0.8954  1.3606
  136DOPC   H5Y18730   7.505   2.082   5.582 -0.6850 -0.4751  1.1470
  136DOPC   C3618731   7.421   2.096   5.384 -0.5702 -0.1035 -0.5789
  136DOPC   H6X18732   7.420   2.040   5.288 -1.3714 -0.3007 -0.4628
  136DOPC   H6Y18733   7.317   2.103   5.423  0.2047 -1.5144  2.0269
  136DOPC   C3718734   7.484   2.237   5.373  0.2728 -0.2903  0.3472
  136DOPC   H7X18735   7.451   2.294   5.463 -2.9140 -2.1743  0.5424
  136DOPC   H7Y18736   7.592   2.221   5.352 -0.4588 -0.2869 -4.6991
  136DOPC   C3818737   7.413   2.318   5.257 -0.1049  0.5088 -0.0644
  136DOPC   H8X18738   7.311   2.346   5.291  0.2586  2.7145 -0.6562
  136DOPC   H8Y18739   7.392   2.249   5.172  1.7326  2.7269 -2.4878
  136DOPC   C3918740   7.494   2.431   5.202  0.4253  0.1685 -0.0388
  136DOPC   H9X18741   7.603   2.416   5.208  0.0569 -2.3278  2.8120
  136DOPC  C31018742   7.434   2.548   5.173  0.2367  0.6020 -0.1591
  136DOPC  H10X18743   7.506   2.620   5.130  2.8891 -0.4431  2.1954
  136DOPC  C31118744   7.288   2.590   5.165 -0.4221  0.1730 -0.6000
  136DOPC  H11X18745   7.278   2.676   5.235 -1.8675  0.2550 -0.8880
  136DOPC  H11Y18746   7.223   2.503   5.189  0.3900 -0.3036 -0.0308
  136DOPC  C31218747   7.246   2.646   5.029 -0.0596 -0.8268  0.4849
  136DOPC  H12X18748   7.292   2.746   5.015  0.9333 -1.6360 -3.0644
  136DOPC  H12Y18749   7.139   2.676   5.024 -0.0935 -0.9613  0.3908
  136DOPC  C31318750   7.288   2.562   4.911  0.4522  0.3533 -0.7977
  136DOPC  H13X18751   7.394   2.530   4.911 -0.0884 -1.5538 -0.4831
  136DOPC  H13Y18752   7.239   2.462   4.908  0.1215  0.4098  1.3599
  136DOPC  C31418753   7.258   2.642   4.787  0.0137 -0.0733 -0.3805
  136DOPC  H14X18754   7.150   2.658   4.766  0.4559  0.4977 -2.4846
  136DOPC  H14Y18755   7.300   2.744   4.803  0.6750 -0.4639  0.3869
  136DOPC  C31518756   7.310   2.569   4.658 -0.2569  0.1577 -0.4894
  136DOPC  H15X18757   7.265   2.467   4.657 -2.1640  0.9567 -0.1516
  136DOPC  H15Y18758   7.421   2.568   4.667 -0.1534 -1.0538 -1.5655
  136DOPC  C31618759   7.261   2.657   4.543  0.9715  0.2314 -0.0795
  136DOPC  H16X18760   7.158   2.621   4.523  1.1400  0.7277 -1.9914
  136DOPC  H16Y18761   7.253   2.765   4.570 -1.3128 -0.1688  1.0952
  136DOPC  C31718762   7.346   2.641   4.423  0.0315  0.5248 -0.9707
  136DOPC  H17X18763   7.296   2.672   4.328 -2.0063 -2.3507 -0.9915
  136DOPC  H17Y18764   7.446   2.688   4.429  0.1099  0.7071 -2.9460
  136DOPC  C31818765   7.365   2.491   4.379  0.1109 -0.2981 -0.0185
  136DOPC  H18X18766   7.443   2.435   4.436  0.9463 -0.6369 -1.4336
  136DOPC  H18Y18767   7.269   2.435   4.379  0.0018 -0.1360 -1.0720
  136DOPC  H18Z18768   7.398   2.503   4.274  1.7709  2.6694  0.7408
  137DOPC     N18769   0.413   8.001   6.343  0.0864 -0.1464  0.2602
  137DOPC   C1218770   0.533   8.094   6.375  0.4899  0.8199 -0.2655
  137DOPC  H12A18771   0.531   8.128   6.477  0.6594 -0.4087  0.1618
  137DOPC  H12B18772   0.528   8.184   6.317  1.4648  1.6240  0.8520
  137DOPC   C1318773   0.287   8.071   6.351  0.4318  0.4295 -0.3401
  137DOPC  H13A18774   0.258   8.077   6.454  0.0190 -1.2242 -0.3330
  137DOPC  H13B18775   0.298   8.171   6.310 -0.3793 -0.2319 -2.3165
  137DOPC  H13C18776   0.207   8.022   6.297  0.3622  0.1553  0.0118
  137DOPC   C1418777   0.404   7.886   6.443 -0.1600  0.1728  0.5208
  137DOPC  H14A18778   0.410   7.921   6.545  0.5708 -1.6673  1.1595
  137DOPC  H14B18779   0.313   7.830   6.431  0.7276 -1.3964  0.7967
  137DOPC  H14C18780   0.491   7.821   6.435 -0.4334 -0.1911  0.4737
  137DOPC   C1518781   0.431   7.953   6.198  0.5964  0.9879 -0.1366
  137DOPC  H15A18782   0.350   7.889   6.166  1.6548  0.3045 -1.5501
  137DOPC  H15B18783   0.519   7.891   6.188 -0.3006 -0.3508  0.0076
  137DOPC  H15C18784   0.443   8.043   6.139  0.5507  2.5131  2.0617
  137DOPC   C1118785   0.685   8.044   6.361 -0.5531 -0.5700  0.7323
  137DOPC  H11A18786   0.700   8.000   6.260  1.3373  0.7550  0.3932
  137DOPC  H11B18787   0.744   8.138   6.367  1.7405 -1.9811  1.8555
  137DOPC     P18788   0.878   7.920   6.457  0.6326 -0.3082  0.3444
  137DOPC   O1318789   0.887   7.797   6.537 -0.6839  0.0520 -0.6112
  137DOPC   O1418790   0.947   8.039   6.513 -0.2079 -0.0208 -0.2593
  137DOPC   O1218791   0.727   7.943   6.448 -0.3784 -0.4412 -0.4923
  137DOPC   O1118792   0.923   7.903   6.306  0.5138  0.1390  0.0394
  137DOPC    C118793   1.037   7.805   6.296 -0.0939  0.8559 -0.4321
  137DOPC    HA18794   1.000   7.712   6.247  0.4274  0.4720 -0.1074
  137DOPC    HB18795   1.080   7.767   6.392 -1.9462 -0.7510 -0.1787
  137DOPC    C218796   1.152   7.862   6.209 -0.2704 -0.3052 -0.0473
  137DOPC    HS18797   1.187   7.953   6.261  2.4347 -1.1244 -0.2687
  137DOPC   O2118798   1.097   7.881   6.080  0.3132 -0.5585  0.3239
  137DOPC   C2118799   1.049   8.003   6.058 -0.9208  0.0118  0.0284
  137DOPC   O2218800   1.054   8.098   6.129  0.2542 -0.2649  0.2473
  137DOPC   C2218801   0.972   8.003   5.929  0.5833 -0.0981  0.7164
  137DOPC   H2R18802   0.882   8.063   5.955 -0.1116  0.8020 -3.0859
  137DOPC   H2S18803   0.955   7.896   5.907  1.8586 -0.4020  1.1098
  137DOPC    C318804   1.265   7.756   6.209  1.0424 -0.0066 -0.3857
  137DOPC    HX18805   1.241   7.661   6.157 -0.5283 -0.3120  0.8111
  137DOPC    HY18806   1.288   7.715   6.310  1.2398  1.0917  0.0306
  137DOPC   O3118807   1.386   7.809   6.154 -0.1463  0.1345  0.3225
  137DOPC   C3118808   1.453   7.881   6.235 -0.1751 -0.5399  0.0225
  137DOPC   O3218809   1.417   7.909   6.348 -0.5881 -0.0257  0.6739
  137DOPC   C3218810   1.597   7.902   6.177  0.9917  0.9877 -0.5755
  137DOPC   H2X18811   1.661   7.940   6.259  1.4373  0.0941 -0.4962
  137DOPC   H2Y18812   1.641   7.807   6.139  0.3113  0.1297  0.7272
  137DOPC   C2318813   1.052   8.060   5.817 -0.3707 -0.1531  0.1715
  137DOPC   H3R18814   1.146   8.006   5.794 -0.4048 -0.7208  1.3056
  137DOPC   H3S18815   1.073   8.167   5.841 -0.0029 -0.2361  0.2200
  137DOPC   C2418816   0.973   8.074   5.679 -0.2585 -0.4880 -0.0740
  137DOPC   H4R18817   0.867   8.102   5.698 -0.2212  1.6723 -2.4132
  137DOPC   H4S18818   0.974   7.972   5.636 -0.8516 -0.9242  0.9271
  137DOPC   C2518819   1.034   8.177   5.582  0.0161 -0.0332  0.6861
  137DOPC   H5R18820   1.144   8.174   5.598 -0.1572 -3.1317  1.8395
  137DOPC   H5S18821   1.004   8.282   5.603 -1.5801  0.2428 -2.3208
  137DOPC   C2618822   1.012   8.134   5.430 -0.6880  0.1885 -0.0803
  137DOPC   H6R18823   0.906   8.103   5.419 -0.8761  0.6582  0.3886
  137DOPC   H6S18824   1.078   8.046   5.413  0.1647  0.7999 -0.0199
  137DOPC   C2718825   1.057   8.256   5.341  0.3302  1.0262  0.0109
  137DOPC   H7R18826   1.164   8.275   5.363 -0.1467  1.8185  1.8672
  137DOPC   H7S18827   0.998   8.346   5.369 -0.0696  1.3707 -1.8119
  137DOPC   C2818828   1.045   8.243   5.180  0.3166  0.1087  0.2287
  137DOPC   H8R18829   1.063   8.343   5.135 -0.1651  0.8633  1.6595
  137DOPC   H8S18830   0.942   8.224   5.145  0.0330  2.0042 -0.0948
  137DOPC   C2918831   1.140   8.135   5.135  0.0145 -0.2673 -0.2415
  137DOPC   H9R18832   1.137   8.051   5.206 -3.0855 -0.5203 -0.5094
  137DOPC  C21018833   1.235   8.144   5.042  0.1569 -0.0112  0.1847
  137DOPC  H10R18834   1.299   8.055   5.032  1.1676  0.6424  0.6068
  137DOPC  C21118835   1.272   8.257   4.953 -0.5251  0.0639  0.3694
  137DOPC  H11R18836   1.363   8.309   4.989 -0.3031  0.1078 -0.2430
  137DOPC  H11S18837   1.188   8.330   4.950  0.3588  1.2101  1.9674
  137DOPC  C21218838   1.296   8.194   4.814  0.0604 -0.3235 -0.1807
  137DOPC  H12R18839   1.200   8.154   4.777 -0.5771  0.1208  0.9401
  137DOPC  H12S18840   1.378   8.119   4.821 -0.1734 -0.6185 -0.5747
  137DOPC  C21318841   1.335   8.305   4.717  0.1564 -0.4471  0.0823
  137DOPC  H13R18842   1.399   8.367   4.784 -0.0601  1.3610 -1.3225
  137DOPC  H13S18843   1.254   8.371   4.681 -0.5505 -0.5772  1.3882
  137DOPC  C21418844   1.408   8.254   4.594  0.3809 -0.2613  0.5254
  137DOPC  H14R18845   1.339   8.196   4.530 -0.4521  2.3518 -1.0846
  137DOPC  H14S18846   1.490   8.186   4.627  0.6734  0.1244  0.6066
  137DOPC  C21518847   1.452   8.375   4.509 -0.3910  0.2397 -0.1205
  137DOPC  H15R18848   1.499   8.441   4.585 -1.1256 -2.7923  3.2484
  137DOPC  H15S18849   1.366   8.427   4.462 -0.8092  0.1893  0.5801
  137DOPC  C21618850   1.549   8.338   4.400 -0.2168  0.7095  0.6326
  137DOPC  H16R18851   1.504   8.266   4.328  0.0733 -0.0446  1.1957
  137DOPC  H16S18852   1.630   8.271   4.435 -0.7305 -0.4171 -0.2370
  137DOPC  C21718853   1.613   8.460   4.332  0.2676  0.0843 -0.2949
  137DOPC  H17R18854   1.691   8.421   4.263  0.7847  2.7042 -1.3265
  137DOPC  H17S18855   1.664   8.519   4.411  0.6315  1.0801 -1.2427
  137DOPC  C21818856   1.522   8.549   4.249  0.5747  0.1746  0.9667
  137DOPC  H18R18857   1.583   8.603   4.172 -0.9644  0.5529 -0.0332
  137DOPC  H18S18858   1.480   8.627   4.316  1.8997  3.0786 -1.2920
  137DOPC  H18T18859   1.442   8.484   4.207  0.0634  0.5659  1.3215
  137DOPC   C3318860   1.602   7.997   6.065 -0.3865  0.7656  0.4010
  137DOPC   H3X18861   1.709   8.012   6.042 -0.4921 -0.3225 -0.9291
  137DOPC   H3Y18862   1.552   8.095   6.083 -2.0293  0.0662 -0.0978
  137DOPC   C3418863   1.545   7.937   5.930 -1.2726 -0.0779 -0.5089
  137DOPC   H4X18864   1.435   7.953   5.929 -1.2516  0.0927 -2.1831
  137DOPC   H4Y18865   1.563   7.828   5.920 -2.9938 -0.2899 -1.6851
  137DOPC   C3518866   1.591   8.019   5.809 -0.3425 -0.0818  0.5584
  137DOPC   H5X18867   1.701   8.037   5.807 -0.3037 -0.2826 -2.1006
  137DOPC   H5Y18868   1.560   8.126   5.808  1.3492  0.4627 -1.7602
  137DOPC   C3618869   1.540   7.956   5.677 -0.2996  0.2584 -0.5632
  137DOPC   H6X18870   1.546   7.846   5.689 -2.0982  0.0449 -1.3114
  137DOPC   H6Y18871   1.430   7.958   5.667 -0.4067 -2.1412 -0.5172
  137DOPC   C3718872   1.617   7.999   5.546  0.1858 -0.3396 -0.2575
  137DOPC   H7X18873   1.659   8.102   5.548  1.6861 -0.9428  1.2591
  137DOPC   H7Y18874   1.708   7.936   5.542  0.8365  0.6300 -2.0840
  137DOPC   C3818875   1.529   7.973   5.437  0.1568 -0.4534  0.6758
  137DOPC   H8X18876   1.561   8.032   5.349 -5.0502  0.3512 -1.0166
  137DOPC   H8Y18877   1.425   8.009   5.455  0.3236 -0.6007  2.0328
  137DOPC   C3918878   1.517   7.823   5.412  0.2535 -0.0425 -0.0305
  137DOPC   H9X18879   1.533   7.758   5.500 -0.8198 -1.6212 -0.9527
  137DOPC  C31018880   1.494   7.774   5.293 -0.5617  0.2859  0.3332
  137DOPC  H10X18881   1.489   7.665   5.284 -0.1029  0.2971 -0.1041
  137DOPC  C31118882   1.475   7.850   5.160  0.2776  0.5087 -0.0718
  137DOPC  H11X18883   1.516   7.953   5.159 -0.3028  0.7576 -1.5983
  137DOPC  H11Y18884   1.369   7.859   5.128  0.7675  1.0992 -1.6140
  137DOPC  C31218885   1.543   7.779   5.037 -0.6876 -0.1800 -0.1931
  137DOPC  H12X18886   1.485   7.685   5.028 -1.2298  0.2292 -1.2263
  137DOPC  H12Y18887   1.647   7.745   5.054 -0.2284  1.2645  0.0591
  137DOPC  C31318888   1.539   7.872   4.910 -0.5016 -0.6531 -0.5031
  137DOPC  H13X18889   1.449   7.937   4.921  1.0005  1.5464 -0.7141
  137DOPC  H13Y18890   1.631   7.933   4.912 -0.2132 -1.0777  1.3693
  137DOPC  C31418891   1.510   7.789   4.787  0.3632 -0.0558  0.1538
  137DOPC  H14X18892   1.578   7.702   4.777  0.5759  0.1388 -0.1051
  137DOPC  H14Y18893   1.410   7.746   4.804 -0.2044  1.1981  0.1284
  137DOPC  C31518894   1.506   7.883   4.661 -0.1964  1.1268  0.0379
  137DOPC  H15X18895   1.584   7.960   4.678  1.9849 -0.4008 -2.2436
  137DOPC  H15Y18896   1.404   7.925   4.656  0.3256  2.4110 -0.1553
  137DOPC  C31618897   1.552   7.819   4.525  0.3817  0.2433 -0.0184
  137DOPC  H16X18898   1.623   7.737   4.546  0.3085 -0.4552 -2.2292
  137DOPC  H16Y18899   1.465   7.773   4.473  1.4177 -2.3846  0.4081
  137DOPC  C31718900   1.609   7.924   4.424  0.2473 -0.6132  0.1974
  137DOPC  H17X18901   1.534   8.000   4.394  1.4932  0.8164  0.5608
  137DOPC  H17Y18902   1.698   7.966   4.476  0.9369 -0.4618 -1.0627
  137DOPC  C31818903   1.661   7.862   4.292 -0.3783 -0.0405  0.0585
  137DOPC  H18X18904   1.579   7.834   4.223 -0.0260 -0.0596 -0.3520
  137DOPC  H18Y18905   1.724   7.940   4.245 -0.8627  0.6926  0.6154
  137DOPC  H18Z18906   1.725   7.774   4.317 -0.9057 -0.6252 -0.6378
  138DOPC     N18907   8.688   8.920   6.586 -0.2143 -0.3652  0.9046
  138DOPC   C1218908   8.696   8.832   6.458  0.1643  0.2391 -0.5336
  138DOPC  H12A18909   8.634   8.879   6.383 -2.1790 -0.1111  1.0410
  138DOPC  H12B18910   8.641   8.742   6.483  0.9920 -0.3783 -0.9081
  138DOPC   C1318911   8.548   8.935   6.641  0.2453 -0.6688  0.1075
  138DOPC  H13A18912   8.548   8.999   6.728 -1.2634 -0.0425 -0.3195
  138DOPC  H13B18913   8.484   8.993   6.575  1.2496  2.9857  2.0762
  138DOPC  H13C18914   8.501   8.843   6.673 -0.0823 -0.5961 -0.1597
  138DOPC   C1418915   8.731   9.058   6.542 -0.3246  0.2897  0.4119
  138DOPC  H14A18916   8.650   9.111   6.495  0.5668  1.8105  0.5340
  138DOPC  H14B18917   8.759   9.119   6.626  0.2979  0.2515  0.2374
  138DOPC  H14C18918   8.811   9.052   6.469 -0.7876 -0.6919 -0.0444
  138DOPC   C1518919   8.786   8.871   6.691 -0.2818 -0.6373  0.1633
  138DOPC  H15A18920   8.767   8.765   6.702 -1.4486 -0.3985  0.5572
  138DOPC  H15B18921   8.784   8.932   6.780  0.2274 -0.1998 -0.1191
  138DOPC  H15C18922   8.884   8.884   6.647  0.2395  1.6836  1.7843
  138DOPC   C1118923   8.829   8.797   6.384  0.0145 -0.6199  0.6258
  138DOPC  H11A18924   8.906   8.780   6.462 -1.8002 -2.3520  2.1590
  138DOPC  H11B18925   8.801   8.712   6.318 -2.4955 -1.2699  2.3812
  138DOPC     P18926   8.834   8.922   6.153  0.1713  0.0326  0.0110
  138DOPC   O1318927   8.847   9.056   6.099 -0.1632 -0.3412  0.2046
  138DOPC   O1418928   8.695   8.867   6.155 -0.2972  0.1547  0.2278
  138DOPC   O1218929   8.881   8.912   6.307 -1.0009 -0.0177 -0.0402
  138DOPC   O1118930   8.926   8.816   6.079 -0.1965  0.1257 -0.1973
  138DOPC    C118931   8.979   8.838   5.947  0.9008  0.6735  0.5228
  138DOPC    HA18932   9.065   8.768   5.934 -0.8142 -1.0489 -2.4443
  138DOPC    HB18933   9.016   8.939   5.921  0.1583  0.5210 -1.2622
  138DOPC    C218934   8.878   8.792   5.838  0.9977  0.0295  0.1554
  138DOPC    HS18935   8.788   8.856   5.842 -0.1803 -1.6043  1.0705
  138DOPC   O2118936   8.839   8.657   5.874 -0.3952  0.8171 -0.4866
  138DOPC   C2118937   8.711   8.613   5.848  0.1353 -0.3920 -0.2155
  138DOPC   O2218938   8.629   8.678   5.789  0.3154 -0.3981 -0.5347
  138DOPC   C2218939   8.698   8.466   5.866 -0.3673  0.1694 -0.3051
  138DOPC   H2R18940   8.604   8.451   5.923 -0.4054  0.5992 -0.2519
  138DOPC   H2S18941   8.772   8.428   5.939 -0.6241 -1.2512 -0.7651
  138DOPC    C318942   8.935   8.792   5.699 -0.8072 -0.2967 -0.2499
  138DOPC    HX18943   9.020   8.720   5.699  0.0250  0.6461 -1.2585
  138DOPC    HY18944   8.973   8.892   5.670  0.1024 -0.9399 -1.3617
  138DOPC   O3118945   8.839   8.757   5.605  0.4110  0.0222  0.1396
  138DOPC   C3118946   8.766   8.864   5.551  0.8522 -0.6492 -0.5255
  138DOPC   O3218947   8.790   8.979   5.582  0.8381 -0.4356  0.0823
  138DOPC   C3218948   8.641   8.809   5.467  0.0556  0.3132  0.1210
  138DOPC   H2X18949   8.638   8.699   5.454 -1.0693  0.5536 -2.1509
  138DOPC   H2Y18950   8.553   8.842   5.527  0.2431 -0.3647  0.7873
  138DOPC   C2318951   8.693   8.375   5.738  0.2856  0.0400  0.0590
  138DOPC   H3R18952   8.595   8.392   5.689 -0.2633 -1.3214  0.6238
  138DOPC   H3S18953   8.705   8.274   5.784  0.2380 -0.2472 -0.5524
  138DOPC   C2418954   8.815   8.380   5.640  0.0553 -0.5133  0.2063
  138DOPC   H4R18955   8.878   8.290   5.661 -1.1953 -2.1322 -2.4198
  138DOPC   H4S18956   8.866   8.475   5.669  0.9487 -0.4878 -1.3056
  138DOPC   C2518957   8.777   8.385   5.493 -0.3420  0.3507  0.7163
  138DOPC   H5R18958   8.676   8.431   5.484 -1.4102 -1.9788 -0.0269
  138DOPC   H5S18959   8.767   8.280   5.459  3.1748  0.7096 -1.9113
  138DOPC   C2618960   8.895   8.445   5.407  0.1166  0.5962 -0.6188
  138DOPC   H6R18961   8.983   8.383   5.431 -0.4611  0.8713  2.6876
  138DOPC   H6S18962   8.913   8.548   5.445 -1.4239  0.9662 -0.8068
  138DOPC   C2718963   8.861   8.433   5.258 -0.0445 -0.8052 -0.0395
  138DOPC   H7R18964   8.847   8.328   5.224 -2.2967 -0.1963 -1.1475
  138DOPC   H7S18965   8.950   8.464   5.199 -0.8164 -0.8662 -1.2726
  138DOPC   C2818966   8.744   8.523   5.227  0.0365  0.1566  0.4093
  138DOPC   H8R18967   8.751   8.617   5.287 -1.8535 -0.8795  2.3839
  138DOPC   H8S18968   8.647   8.481   5.261  0.9598 -0.6496  2.1854
  138DOPC   C2918969   8.719   8.568   5.082  0.6406 -0.3638 -0.0780
  138DOPC   H9R18970   8.786   8.650   5.052  0.4692 -0.3635 -0.4592
  138DOPC  C21018971   8.617   8.544   4.997 -0.4769  0.2050  0.3167
  138DOPC  H10R18972   8.632   8.595   4.900 -1.3941 -0.8482 -0.4099
  138DOPC  C21118973   8.506   8.441   5.004 -1.1362 -0.9657 -0.5801
  138DOPC  H11R18974   8.407   8.479   5.035 -1.8487 -1.9229 -1.5915
  138DOPC  H11S18975   8.542   8.363   5.075 -0.6692  0.2312  0.5251
  138DOPC  C21218976   8.486   8.374   4.873  0.1482 -0.0428  0.3905
  138DOPC  H12R18977   8.460   8.451   4.798 -0.0075 -0.4746 -0.0063
  138DOPC  H12S18978   8.401   8.304   4.858 -0.7537  0.9659  0.6531
  138DOPC  C21318979   8.610   8.304   4.811 -0.3070 -0.0937  0.6047
  138DOPC  H13R18980   8.673   8.255   4.888  0.1251  3.1838  2.5273
  138DOPC  H13S18981   8.687   8.368   4.763 -0.2863  0.3832  1.2648
  138DOPC  C21418982   8.559   8.199   4.699  0.1698 -0.0153 -0.5000
  138DOPC  H14R18983   8.492   8.125   4.748  1.3761  0.3103  1.7594
  138DOPC  H14S18984   8.645   8.143   4.656  0.0146  0.3482 -1.3006
  138DOPC  C21518985   8.502   8.281   4.583  0.1927  0.0835 -0.4488
  138DOPC  H15R18986   8.562   8.371   4.558 -1.0306  0.9051 -0.5386
  138DOPC  H15S18987   8.401   8.320   4.608  0.6406  0.1818  1.3671
  138DOPC  C21618988   8.487   8.194   4.451 -0.6082  0.3327  0.9172
  138DOPC  H16R18989   8.583   8.180   4.398 -1.4502 -3.2381  0.0574
  138DOPC  H16S18990   8.421   8.259   4.390 -0.6040 -0.2063  0.3241
  138DOPC  C21718991   8.418   8.064   4.477 -0.7353  0.7965 -0.1565
  138DOPC  H17R18992   8.323   8.085   4.531 -0.4569  2.2482 -0.1852
  138DOPC  H17S18993   8.473   7.995   4.545  0.4829  3.1339  1.3874
  138DOPC  C21818994   8.385   8.000   4.344  0.0456 -0.1679 -0.7495
  138DOPC  H18R18995   8.360   7.895   4.372  0.8880 -0.2171 -0.1454
  138DOPC  H18S18996   8.470   8.004   4.273  0.7196  2.7551  0.0913
  138DOPC  H18T18997   8.296   8.056   4.309  1.9377  4.1228  0.6106
  138DOPC   C3318998   8.629   8.885   5.331 -0.1642 -0.2248 -0.5900
  138DOPC   H3X18999   8.721   8.859   5.276 -0.1991  1.0067 -1.2605
  138DOPC   H3Y19000   8.625   8.994   5.355 -0.0920 -0.1401 -0.9601
  138DOPC   C3419001   8.504   8.838   5.257  0.1090 -0.0558  0.3648
  138DOPC   H4X19002   8.413   8.879   5.307 -1.1854 -1.6956 -0.5320
  138DOPC   H4Y19003   8.500   8.727   5.258  2.3862 -0.1804  0.6366
  138DOPC   C3519004   8.504   8.885   5.113  0.4659 -0.2633 -0.1781
  138DOPC   H5X19005   8.599   8.857   5.062  1.4030  1.3517  0.5981
  138DOPC   H5Y19006   8.517   8.995   5.122 -1.2749  0.1062 -1.5476
  138DOPC   C3619007   8.380   8.840   5.032 -0.2262  0.1444 -0.1495
  138DOPC   H6X19008   8.376   8.731   5.053  1.7266 -0.1989 -1.3457
  138DOPC   H6Y19009   8.292   8.898   5.068  0.1361 -0.1862  1.2992
  138DOPC   C3719010   8.396   8.861   4.882 -0.4584 -0.6766  0.2093
  138DOPC   H7X19011   8.403   8.972   4.875 -1.7709 -0.5790  0.1696
  138DOPC   H7Y19012   8.488   8.805   4.857 -0.1245  0.1697 -0.4871
  138DOPC   C3819013   8.277   8.818   4.793 -0.5196  0.8765  0.3206
  138DOPC   H8X19014   8.281   8.864   4.692 -1.0073 -2.2400 -1.2638
  138DOPC   H8Y19015   8.190   8.856   4.850  0.0789  0.7642  1.3396
  138DOPC   C3919016   8.286   8.665   4.794  0.3659  0.6344 -0.2076
  138DOPC   H9X19017   8.279   8.621   4.894  1.2165 -0.2062 -0.5068
  138DOPC  C31019018   8.265   8.585   4.689 -0.9556  0.3057  0.6963
  138DOPC  H10X19019   8.264   8.475   4.686 -0.1824  0.2906 -2.5198
  138DOPC  C31119020   8.226   8.629   4.548 -0.4758  0.5739 -0.4763
  138DOPC  H11X19021   8.280   8.725   4.529 -2.3161  2.2399  2.0292
  138DOPC  H11Y19022   8.116   8.648   4.554 -0.5515 -0.1267  0.4851
  138DOPC  C31219023   8.240   8.520   4.438  0.3256  0.2197 -0.7953
  138DOPC  H12X19024   8.198   8.425   4.477 -2.4488  1.8074  0.3845
  138DOPC  H12Y19025   8.350   8.517   4.422  1.0509 -0.7786  3.3225
  138DOPC  C31319026   8.170   8.558   4.313 -0.6742 -0.1407 -0.2729
  138DOPC  H13X19027   8.213   8.483   4.243  1.9362  1.4962 -0.5683
  138DOPC  H13Y19028   8.060   8.544   4.325 -0.5479 -0.0030  1.2427
  138DOPC  C31419029   8.214   8.691   4.249  0.0856  0.1799  0.2132
  138DOPC  H14X19030   8.181   8.774   4.315  0.5071  2.0261 -1.7762
  138DOPC  H14Y19031   8.325   8.696   4.252  0.2823 -2.2889 -0.2495
  138DOPC  C31519032   8.155   8.723   4.108 -0.2495 -0.2629  0.6253
  138DOPC  H15X19033   8.047   8.731   4.133  0.0653  0.3487  1.8483
  138DOPC  H15Y19034   8.173   8.641   4.034  0.2398  0.1216  0.3097
  138DOPC  C31619035   8.204   8.858   4.062 -0.3659  0.1602 -0.5125
  138DOPC  H16X19036   8.176   8.929   4.143  0.6678 -0.4158  0.3746
  138DOPC  H16Y19037   8.315   8.857   4.054 -0.4617  0.4949 -2.0862
  138DOPC  C31719038   8.150   8.909   3.930 -0.4531  0.3518  0.4253
  138DOPC  H17X19039   8.172   8.847   3.840 -2.2106 -1.2272  1.0078
  138DOPC  H17Y19040   8.039   8.915   3.936 -0.5298 -0.2909 -0.1873
  138DOPC  C31819041   8.210   9.046   3.908 -0.1230  0.1398  0.0863
  138DOPC  H18X19042   8.231   9.085   4.010  0.8552 -1.8845  0.7229
  138DOPC  H18Y19043   8.311   9.053   3.863 -0.0428 -1.5425 -0.0821
  138DOPC  H18Z19044   8.132   9.100   3.851  0.0802 -1.1100 -1.4551
  139DOPC     N19045   0.377   4.145   5.772  0.1558  0.1984 -1.0807
  139DOPC   C1219046   0.261   4.099   5.686  0.4679 -0.1735 -0.2732
  139DOPC  H12A19047   0.301   4.040   5.605  1.0690  0.1641 -0.2312
  139DOPC  H12B19048   0.208   4.183   5.644  0.1745  0.6693  1.7020
  139DOPC   C1319049   0.474   4.224   5.687  0.3012 -0.2135  0.3360
  139DOPC  H13A19050   0.513   4.170   5.602  1.3622 -0.8092  1.1668
  139DOPC  H13B19051   0.434   4.318   5.654  2.8295  0.8708  0.2035
  139DOPC  H13C19052   0.562   4.251   5.743  0.8962  1.1174 -1.1584
  139DOPC   C1419053   0.459   4.025   5.820  0.2125 -0.4721  0.9726
  139DOPC  H14A19054   0.399   3.967   5.888 -0.3981 -1.4125 -0.3419
  139DOPC  H14B19055   0.483   3.967   5.733 -2.5146 -1.9352  1.1088
  139DOPC  H14C19056   0.551   4.069   5.857  1.1628  0.5497 -2.2425
  139DOPC   C1519057   0.338   4.230   5.890 -0.4983  0.3046  0.7242
  139DOPC  H15A19058   0.431   4.263   5.935  0.2113 -0.8040  0.1150
  139DOPC  H15B19059   0.278   4.181   5.965 -0.8744 -0.4025 -0.0273
  139DOPC  H15C19060   0.287   4.320   5.861  0.4728  0.4898 -0.4954
  139DOPC   C1119061   0.165   3.997   5.758 -0.3369 -0.2910 -0.4600
  139DOPC  H11A19062   0.130   4.048   5.850  2.2653  2.2631 -0.7368
  139DOPC  H11B19063   0.080   3.970   5.692 -0.2818 -2.0213  0.1266
  139DOPC     P19064   0.253   3.755   5.693  0.6760 -0.1174  0.1626
  139DOPC   O1319065   0.124   3.696   5.652 -0.0687 -0.4653 -0.0615
  139DOPC   O1419066   0.347   3.666   5.757 -0.4169 -0.2331 -0.0553
  139DOPC   O1219067   0.221   3.873   5.796 -0.2732 -0.0376  0.1440
  139DOPC   O1119068   0.317   3.833   5.568 -0.0504 -0.3189  0.4202
  139DOPC    C119069   0.424   3.770   5.503  0.5648 -0.2832 -0.2406
  139DOPC    HA19070   0.475   3.687   5.558 -0.5966 -0.4778  0.5830
  139DOPC    HB19071   0.492   3.850   5.467 -1.6520  2.1460  0.6285
  139DOPC    C219072   0.370   3.705   5.374 -0.3585 -0.3696  1.1914
  139DOPC    HS19073   0.282   3.761   5.338 -0.6643 -1.5823 -0.0447
  139DOPC   O2119074   0.342   3.563   5.393 -0.5936 -0.2107  0.0207
  139DOPC   C2119075   0.233   3.521   5.328 -0.7154 -0.3105  0.5465
  139DOPC   O2219076   0.179   3.575   5.230 -0.1104 -0.2706 -0.4839
  139DOPC   C2219077   0.194   3.383   5.390 -0.3145 -0.2650  0.1144
  139DOPC   H2R19078   0.148   3.408   5.488 -2.4576 -0.6434 -0.7182
  139DOPC   H2S19079   0.290   3.332   5.414  0.7115  1.8827  0.7648
  139DOPC    C319080   0.470   3.720   5.250  0.2735  0.2224 -0.5111
  139DOPC    HX19081   0.561   3.665   5.284  0.0354  0.9318  1.4338
  139DOPC    HY19082   0.505   3.824   5.236 -0.4268  0.1919 -2.9117
  139DOPC   O3119083   0.415   3.658   5.132 -0.0674  0.4080 -0.0068
  139DOPC   C3119084   0.333   3.740   5.058 -0.3658 -0.0119 -0.2669
  139DOPC   O3219085   0.296   3.852   5.092 -0.1913 -0.2621  0.0502
  139DOPC   C3219086   0.291   3.670   4.924 -0.4825 -0.0284 -1.0024
  139DOPC   H2X19087   0.228   3.591   4.969 -1.9215  1.0499 -1.0715
  139DOPC   H2Y19088   0.214   3.724   4.866 -2.0693 -1.3972 -0.2468
  139DOPC   C2319089   0.087   3.303   5.307  0.1544  0.1362 -0.2586
  139DOPC   H3R19090   0.107   3.332   5.201  0.0703 -0.2088 -0.3683
  139DOPC   H3S19091  -0.017   3.334   5.332 -0.2116  1.7444 -3.2861
  139DOPC   C2419092   0.095   3.153   5.320  0.2003 -0.3277  0.2063
  139DOPC   H4R19093   0.061   3.120   5.421 -0.8186 -1.2546 -0.4147
  139DOPC   H4S19094   0.201   3.122   5.310  1.0053  2.7222 -2.9889
  139DOPC   C2519095   0.007   3.081   5.217  0.1507  0.0694  0.3981
  139DOPC   H5R19096   0.046   3.092   5.114  0.4263 -0.7078  0.4153
  139DOPC   H5S19097  -0.077   3.153   5.219  1.6773  1.9057  1.5481
  139DOPC   C2619098  -0.027   2.940   5.262 -0.1557  0.4706  0.5720
  139DOPC   H6R19099  -0.051   2.945   5.370  0.6342  1.4634  0.7127
  139DOPC   H6S19100   0.057   2.869   5.248  0.2688  1.2569 -1.1021
  139DOPC   C2719101  -0.150   2.889   5.185  0.2542 -0.0127  0.2175
  139DOPC   H7R19102  -0.235   2.960   5.191 -0.4786 -0.9001  0.4535
  139DOPC   H7S19103  -0.197   2.797   5.225  1.0819 -0.8660 -0.7179
  139DOPC   C2819104  -0.120   2.869   5.040 -0.1024 -0.0550 -0.4859
  139DOPC   H8R19105  -0.033   2.801   5.042 -0.5743 -0.6439  1.2595
  139DOPC   H8S19106  -0.087   2.961   4.986  0.9238  0.1488  0.4470
  139DOPC   C2919107  -0.239   2.802   4.969 -0.4353  0.6127  0.7828
  139DOPC   H9R19108  -0.307   2.754   5.041 -1.8131  0.3722 -0.6078
  139DOPC  C21019109  -0.280   2.828   4.844  0.2086 -0.3431  1.2035
  139DOPC  H10R19110  -0.364   2.773   4.799  1.4110 -0.7116 -0.7039
  139DOPC  C21119111  -0.220   2.920   4.741 -0.5599  0.5454  0.7976
  139DOPC  H11R19112  -0.113   2.936   4.764 -0.4780  3.4230 -1.1143
  139DOPC  H11S19113  -0.266   3.021   4.747  1.7127  1.6196  1.4836
  139DOPC  C21219114  -0.243   2.870   4.595 -0.2113 -0.2437 -0.1394
  139DOPC  H12R19115  -0.194   2.773   4.574 -1.0429 -0.2443 -2.2736
  139DOPC  H12S19116  -0.183   2.938   4.532  0.9578  0.8196  2.0187
  139DOPC  C21319117  -0.390   2.866   4.546 -0.1179  0.2362  0.2221
  139DOPC  H13R19118  -0.447   2.948   4.597  0.6293  0.5035  0.6427
  139DOPC  H13S19119  -0.432   2.771   4.585  0.0056  1.0057  2.3688
  139DOPC  C21419120  -0.412   2.868   4.397 -0.5483  0.6329 -0.3350
  139DOPC  H14R19121  -0.315   2.882   4.345  0.5173 -0.5661  1.2343
  139DOPC  H14S19122  -0.467   2.960   4.369 -1.5156 -0.0536 -0.7435
  139DOPC  C21519123  -0.476   2.738   4.344 -0.7340 -0.4963  0.4345
  139DOPC  H15R19124  -0.577   2.721   4.388 -1.5689  0.5840 -0.9714
  139DOPC  H15S19125  -0.410   2.652   4.369 -1.8563 -1.5840 -0.2333
  139DOPC  C21619126  -0.505   2.742   4.198  0.4971 -0.8299  0.4236
  139DOPC  H16R19127  -0.414   2.771   4.141  1.5435 -1.6971  1.6115
  139DOPC  H16S19128  -0.584   2.814   4.167 -0.2753 -1.5698  0.6341
  139DOPC  C21719129  -0.576   2.615   4.148  0.2242  0.3541 -0.1532
  139DOPC  H17R19130  -0.661   2.605   4.219  0.3751  0.2141  0.0096
  139DOPC  H17S19131  -0.515   2.523   4.158 -0.6976 -0.4732 -1.7829
  139DOPC  C21819132  -0.630   2.624   4.003  0.1399 -0.0185 -0.8244
  139DOPC  H18R19133  -0.559   2.671   3.932 -1.5841 -0.6228 -3.0678
  139DOPC  H18S19134  -0.721   2.688   4.012  0.4977  0.3724  0.0798
  139DOPC  H18T19135  -0.666   2.524   3.972 -1.7771 -0.1071  1.3920
  139DOPC   C3319136   0.403   3.620   4.832 -0.3830 -0.5070  0.2855
  139DOPC   H3X19137   0.377   3.518   4.796  2.6781 -2.8732  3.8466
  139DOPC   H3Y19138   0.491   3.600   4.897  0.0499  2.2722  0.6486
  139DOPC   C3419139   0.442   3.723   4.729 -0.0579  0.0971  0.7740
  139DOPC   H4X19140   0.481   3.818   4.772  1.3771  0.0683 -0.3861
  139DOPC   H4Y19141   0.351   3.754   4.673  1.6427 -0.9789 -2.8527
  139DOPC   C3519142   0.531   3.668   4.612  0.6813  0.2181  0.2780
  139DOPC   H5X19143   0.467   3.584   4.578 -0.1194 -0.0016  2.1928
  139DOPC   H5Y19144   0.621   3.628   4.664  1.3973  2.2429  0.6842
  139DOPC   C3619145   0.577   3.774   4.518 -0.6936  0.0241  0.1102
  139DOPC   H6X19146   0.482   3.814   4.475 -1.2364  1.5269  2.5380
  139DOPC   H6Y19147   0.624   3.852   4.581  0.4992 -0.2002 -0.4643
  139DOPC   C3719148   0.673   3.714   4.415 -0.1225  0.4075  0.0147
  139DOPC   H7X19149   0.751   3.650   4.462 -0.4129  0.6079  0.7856
  139DOPC   H7Y19150   0.614   3.648   4.349  0.4979 -0.9135  0.7411
  139DOPC   C3819151   0.746   3.812   4.326 -0.8438 -0.4571 -0.4726
  139DOPC   H8X19152   0.678   3.858   4.251  1.0436  1.4934 -1.0812
  139DOPC   H8Y19153   0.816   3.751   4.265 -1.0398 -1.9545  0.7240
  139DOPC   C3919154   0.823   3.922   4.401  0.7234 -0.6254  0.3533
  139DOPC   H9X19155   0.768   4.005   4.447  0.3156 -1.8597  2.1826
  139DOPC  C31019156   0.950   3.917   4.443  0.4607 -0.3051  0.4253
  139DOPC  H10X19157   0.989   4.009   4.489 -0.5169  2.9004 -4.3553
  139DOPC  C31119158   1.033   3.797   4.425 -0.0574  0.0034 -0.1984
  139DOPC  H11X19159   0.976   3.713   4.381  0.0848  0.6053 -1.5665
  139DOPC  H11Y19160   1.083   3.767   4.520 -0.6840 -0.2586  0.0555
  139DOPC  C31219161   1.153   3.803   4.318  0.1830  0.6373 -0.3032
  139DOPC  H12X19162   1.216   3.711   4.315 -0.9581 -0.1454 -1.9544
  139DOPC  H12Y19163   1.217   3.891   4.343  1.5852 -0.7533  1.2842
  139DOPC  C31319164   1.100   3.821   4.175 -0.5330  0.1364  0.4639
  139DOPC  H13X19165   1.035   3.736   4.145  1.5117 -0.4621 -2.7878
  139DOPC  H13Y19166   1.045   3.917   4.168  0.7511  0.9152  0.7597
  139DOPC  C31419167   1.204   3.829   4.061 -0.4020  0.6268  0.6173
  139DOPC  H14X19168   1.234   3.726   4.031  1.8401  1.2669  0.4781
  139DOPC  H14Y19169   1.162   3.875   3.969  1.0343  0.6598 -0.0487
  139DOPC  C31519170   1.333   3.915   4.092  0.0814  0.6725  0.4207
  139DOPC  H15X19171   1.288   4.003   4.143  0.4948  1.5798 -0.7294
  139DOPC  H15Y19172   1.374   3.959   3.998 -2.2031  0.6352 -0.6657
  139DOPC  C31619173   1.445   3.856   4.180  0.3939  0.1539  0.2742
  139DOPC  H16X19174   1.398   3.823   4.275 -1.6870  3.6417  0.6346
  139DOPC  H16Y19175   1.470   3.760   4.129 -1.7021 -0.1179 -0.3404
  139DOPC  C31719176   1.570   3.947   4.201  0.4001  0.4847  0.5124
  139DOPC  H17X19177   1.635   3.885   4.267 -2.9512 -1.9073  1.8342
  139DOPC  H17Y19178   1.629   3.965   4.109 -0.1118 -0.7753 -0.0933
  139DOPC  C31819179   1.539   4.080   4.270 -0.4587 -0.3675 -0.1408
  139DOPC  H18X19180   1.522   4.066   4.378  1.4604 -2.4040 -0.0269
  139DOPC  H18Y19181   1.627   4.149   4.274 -1.1916  0.5459  3.3910
  139DOPC  H18Z19182   1.459   4.136   4.218  0.1001  0.7055  0.1242
  140DOPC     N19183   0.323   3.090   6.196 -0.9982 -0.7721 -0.9661
  140DOPC   C1219184   0.384   2.957   6.242 -0.4644  0.5273  0.1379
  140DOPC  H12A19185   0.314   2.882   6.209 -0.7369  0.3749  1.0255
  140DOPC  H12B19186   0.383   2.947   6.350  0.2869  1.7574  0.2736
  140DOPC   C1319187   0.423   3.202   6.230 -0.2363  0.3744  0.2213
  140DOPC  H13A19188   0.521   3.179   6.192 -0.6436 -0.0651 -0.5881
  140DOPC  H13B19189   0.377   3.287   6.183 -1.6926 -0.3656  0.2439
  140DOPC  H13C19190   0.419   3.226   6.335 -1.5254 -1.4412  0.6418
  140DOPC   C1419191   0.192   3.109   6.270 -0.0237  0.5331 -0.0364
  140DOPC  H14A19192   0.208   3.088   6.375  0.5403 -1.2417 -0.4556
  140DOPC  H14B19193   0.166   3.214   6.259  0.0388  0.3340 -2.6564
  140DOPC  H14C19194   0.110   3.060   6.219 -0.6424  3.1129 -1.7572
  140DOPC   C1519195   0.296   3.083   6.049  0.0944  0.0891  0.5229
  140DOPC  H15A19196   0.258   3.177   6.011  0.4271 -0.0602 -0.2032
  140DOPC  H15B19197   0.217   3.015   6.023  0.8802 -0.1170 -1.5572
  140DOPC  H15C19198   0.387   3.066   5.993 -0.5305 -0.4684 -0.3393
  140DOPC   C1119199   0.527   2.921   6.190 -0.0675  0.1318  0.0955
  140DOPC  H11A19200   0.604   2.989   6.235  0.7999  0.1087 -1.3018
  140DOPC  H11B19201   0.551   2.820   6.230 -2.5722  0.3624  2.4296
  140DOPC     P19202   0.681   2.910   5.973 -0.1203  0.4361  0.4454
  140DOPC   O1319203   0.726   2.769   5.987 -0.3020  0.0438  0.1442
  140DOPC   O1419204   0.773   3.017   6.016 -0.0799  0.2076  0.2292
  140DOPC   O1219205   0.538   2.926   6.051  0.3758  0.1554  0.2584
  140DOPC   O1119206   0.636   2.937   5.830 -0.0288 -0.2206  0.3011
  140DOPC    C119207   0.526   3.015   5.794 -0.6396  0.3381  0.1337
  140DOPC    HA19208   0.528   3.111   5.851  0.6695 -0.3379  1.2896
  140DOPC    HB19209   0.441   2.954   5.830  0.0252  0.5529  2.2443
  140DOPC    C219210   0.528   3.046   5.644  0.3039  0.2150  0.0980
  140DOPC    HS19211   0.435   3.103   5.619  0.7157  0.9169  0.1427
  140DOPC   O2119212   0.522   2.922   5.567 -0.5481  0.1599 -0.2295
  140DOPC   C2119213   0.402   2.885   5.520 -0.4070 -0.4402  0.4654
  140DOPC   O2219214   0.297   2.945   5.545 -0.4644  0.5423  0.2706
  140DOPC   C2219215   0.419   2.758   5.433 -0.2223  0.1617 -0.2937
  140DOPC   H2R19216   0.408   2.670   5.500 -0.0218  1.5772  1.7031
  140DOPC   H2S19217   0.525   2.739   5.407 -0.3939 -0.1834 -0.7665
  140DOPC    C319218   0.652   3.114   5.593 -0.0942 -0.0428 -0.4960
  140DOPC    HX19219   0.743   3.056   5.621  0.4693  0.8523 -0.4313
  140DOPC    HY19220   0.662   3.205   5.655  0.3392 -0.3700 -0.0729
  140DOPC   O3119221   0.660   3.135   5.450 -0.7920  0.3782  0.3821
  140DOPC   C3119222   0.613   3.248   5.405 -0.2330 -0.5246 -0.4232
  140DOPC   O3219223   0.576   3.340   5.472 -0.6300  0.4706 -0.1899
  140DOPC   C3219224   0.636   3.252   5.259 -0.3475 -0.7409 -0.0328
  140DOPC   H2X19225   0.712   3.332   5.248  0.0225 -1.3712 -2.7667
  140DOPC   H2Y19226   0.675   3.158   5.215  0.9612  0.0692 -0.6483
  140DOPC   C2319227   0.321   2.740   5.311 -0.1731  0.7423  0.5077
  140DOPC   H3R19228   0.216   2.732   5.346 -1.0847 -0.6579 -2.2621
  140DOPC   H3S19229   0.355   2.644   5.266 -1.6192 -0.8855  2.6575
  140DOPC   C2419230   0.342   2.847   5.207  0.4115 -0.0751 -0.3264
  140DOPC   H4R19231   0.449   2.861   5.182  1.1563 -0.8488  2.0972
  140DOPC   H4S19232   0.298   2.943   5.241 -0.4241 -0.2558 -0.8627
  140DOPC   C2519233   0.283   2.797   5.067  1.1404 -0.3999  0.3122
  140DOPC   H5R19234   0.176   2.801   5.095  0.1682  0.3485 -3.0341
  140DOPC   H5S19235   0.310   2.691   5.050 -1.5643 -1.2284  0.7594
  140DOPC   C2619236   0.290   2.886   4.946  0.1429  0.1671  0.3427
  140DOPC   H6R19237   0.393   2.899   4.907 -0.3010 -1.1401 -1.3807
  140DOPC   H6S19238   0.257   2.987   4.977  0.6562 -0.4889  3.2551
  140DOPC   C2719239   0.204   2.843   4.826 -0.1261 -0.0386 -0.1851
  140DOPC   H7R19240   0.097   2.849   4.857  0.1565  2.0931  0.5584
  140DOPC   H7S19241   0.220   2.737   4.797 -2.1834 -0.6166  0.5893
  140DOPC   C2819242   0.207   2.940   4.704  0.3382  0.0378  0.0716
  140DOPC   H8R19243   0.180   3.040   4.743  0.9865 -0.5902  2.2884
  140DOPC   H8S19244   0.125   2.901   4.642  0.4427 -1.1758  0.6684
  140DOPC   C2919245   0.325   2.933   4.621 -0.2225  0.2265 -0.6690
  140DOPC   H9R19246   0.360   2.832   4.597 -1.5469  0.2274 -2.9326
  140DOPC  C21019247   0.385   3.037   4.563  0.3425  0.3621 -0.1520
  140DOPC  H10R19248   0.473   3.017   4.499 -1.4400 -0.7215 -2.3997
  140DOPC  C21119249   0.348   3.183   4.583  0.4407 -0.4972 -0.0856
  140DOPC  H11R19250   0.412   3.231   4.660  1.2920  0.0323 -1.1054
  140DOPC  H11S19251   0.240   3.200   4.607  0.0501 -2.0562 -0.6064
  140DOPC  C21219252   0.382   3.253   4.456 -0.5259 -0.2440  0.1415
  140DOPC  H12R19253   0.368   3.193   4.364  0.1207 -1.1131  0.5891
  140DOPC  H12S19254   0.492   3.266   4.465 -0.5274 -0.9285  1.4515
  140DOPC  C21319255   0.311   3.385   4.427 -0.5393 -0.4142  1.0101
  140DOPC  H13R19256   0.328   3.445   4.518 -3.0741 -0.3768  1.5244
  140DOPC  H13S19257   0.200   3.378   4.423 -0.5123 -0.8437 -2.0750
  140DOPC  C21419258   0.357   3.456   4.298 -0.3316  0.5379 -0.0491
  140DOPC  H14R19259   0.338   3.381   4.218 -0.5744 -0.7040  1.1481
  140DOPC  H14S19260   0.467   3.464   4.309 -0.3343 -1.0146  1.5799
  140DOPC  C21519261   0.300   3.600   4.281  0.1654  0.4931  0.2577
  140DOPC  H15R19262   0.328   3.650   4.376  0.2443  0.1197  0.4344
  140DOPC  H15S19263   0.189   3.600   4.273  0.2644  1.1903 -1.8492
  140DOPC  C21619264   0.350   3.665   4.152 -0.1537 -0.5039 -0.1037
  140DOPC  H16R19265   0.303   3.627   4.059 -1.0370 -3.8872  1.5751
  140DOPC  H16S19266   0.455   3.630   4.147 -1.2093 -4.3060  1.1219
  140DOPC  C21719267   0.353   3.816   4.168 -0.0827  0.1776  0.8800
  140DOPC  H17R19268   0.429   3.867   4.105 -1.5019  1.1662 -0.0848
  140DOPC  H17S19269   0.376   3.845   4.273 -0.0111  0.6931  0.7236
  140DOPC  C21819270   0.217   3.886   4.140  0.1347  0.5922 -0.1295
  140DOPC  H18R19271   0.176   3.859   4.041 -0.1797 -0.4964  0.2745
  140DOPC  H18S19272   0.233   3.995   4.148  0.3024  0.5743 -0.2282
  140DOPC  H18T19273   0.144   3.857   4.219  0.8421 -1.3967 -0.1421
  140DOPC   C3319274   0.510   3.281   5.169  0.5800 -0.2872  0.1509
  140DOPC   H3X19275   0.472   3.383   5.190  0.0065  0.5305 -4.0696
  140DOPC   H3Y19276   0.431   3.206   5.187  1.4776 -1.3988 -0.3781
  140DOPC   C3419277   0.541   3.273   5.017  0.0068  0.1749  0.4230
  140DOPC   H4X19278   0.456   3.317   4.960 -1.0590 -0.9313  1.1048
  140DOPC   H4Y19279   0.558   3.168   4.985  1.5495  1.2818 -2.8188
  140DOPC   C3519280   0.663   3.354   4.970  0.1442 -0.1781  0.2329
  140DOPC   H5X19281   0.747   3.305   5.023 -0.8887 -0.4104  1.7126
  140DOPC   H5Y19282   0.659   3.457   5.012  0.2017  1.2921 -3.1034
  140DOPC   C3619283   0.690   3.344   4.818 -0.1183  0.5719  0.5776
  140DOPC   H6X19284   0.707   3.243   4.777  2.2989  2.3020 -3.2602
  140DOPC   H6Y19285   0.611   3.387   4.752  0.1640 -0.9697 -0.8065
  140DOPC   C3719286   0.820   3.419   4.785 -0.2441 -0.9937 -0.5167
  140DOPC   H7X19287   0.801   3.526   4.805 -0.3373 -0.7564 -1.7947
  140DOPC   H7Y19288   0.893   3.381   4.860 -1.8471 -0.9191  1.1485
  140DOPC   C3819289   0.868   3.401   4.635  0.0545 -0.2775 -0.4432
  140DOPC   H8X19290   0.942   3.481   4.616 -0.3560  0.6058  1.4701
  140DOPC   H8Y19291   0.776   3.430   4.580 -1.6965 -2.7664  0.9266
  140DOPC   C3919292   0.917   3.257   4.632  0.3369  0.2621  0.1863
  140DOPC   H9X19293   1.001   3.228   4.696 -0.6443 -0.4450  1.1748
  140DOPC  C31019294   0.871   3.161   4.545 -0.5240  0.4751 -0.2399
  140DOPC  H10X19295   0.894   3.055   4.562 -2.0512  0.1015 -0.2989
  140DOPC  C31119296   0.765   3.181   4.445 -0.3951 -0.3251  0.0840
  140DOPC  H11X19297   0.692   3.259   4.474 -1.5028 -1.5581  0.7683
  140DOPC  H11Y19298   0.707   3.086   4.445 -1.4684  0.2671 -1.9170
  140DOPC  C31219299   0.803   3.205   4.293  0.1696 -0.0894  0.0792
  140DOPC  H12X19300   0.878   3.127   4.268  0.4052  0.3879 -0.7558
  140DOPC  H12Y19301   0.852   3.305   4.281  1.1704 -0.7561 -1.8549
  140DOPC  C31319302   0.685   3.187   4.202 -0.2149  0.0384 -0.4209
  140DOPC  H13X19303   0.648   3.086   4.228 -0.9464 -0.3701 -2.7814
  140DOPC  H13Y19304   0.604   3.257   4.233 -1.7292 -2.5398  1.8041
  140DOPC  C31419305   0.700   3.187   4.049  0.0397 -0.2145  0.5715
  140DOPC  H14X19306   0.781   3.116   4.021  1.2256  0.4284  2.1486
  140DOPC  H14Y19307   0.603   3.173   3.998  0.8457 -2.2102 -0.4967
  140DOPC  C31519308   0.759   3.316   3.991  0.1129  0.0943 -0.7523
  140DOPC  H15X19309   0.788   3.296   3.886 -0.1370 -0.1457 -0.7758
  140DOPC  H15Y19310   0.847   3.341   4.054 -1.9273  2.4833  1.3807
  140DOPC  C31619311   0.656   3.434   3.996  0.3526  0.0927 -0.8098
  140DOPC  H16X19312   0.557   3.405   3.955 -0.4640 -1.3041  1.9413
  140DOPC  H16Y19313   0.647   3.445   4.106  1.3039  0.2522 -0.7416
  140DOPC  C31719314   0.706   3.567   3.936  0.5189  0.4565 -0.1042
  140DOPC  H17X19315   0.707   3.560   3.826  0.4382 -1.4713 -0.0313
  140DOPC  H17Y19316   0.635   3.651   3.950  1.5428  1.0943  1.5488
  140DOPC  C31819317   0.845   3.611   3.979  0.6495 -0.7313  0.3102
  140DOPC  H18X19318   0.933   3.562   3.932  0.2167 -0.7487 -0.4963
  140DOPC  H18Y19319   0.852   3.721   3.962  1.1042 -0.6566  0.9507
  140DOPC  H18Z19320   0.856   3.614   4.090 -3.0770  1.1357  0.7892
  141DOPC     N19321   1.582   0.963   6.165 -0.1756  0.2238  0.2518
  141DOPC   C1219322   1.660   1.020   6.050  0.0753  0.0056  0.2633
  141DOPC  H12A19323   1.606   1.012   5.957  2.2973 -0.1900 -1.0942
  141DOPC  H12B19324   1.751   0.962   6.042  0.1541  0.2730 -0.9292
  141DOPC   C1319325   1.440   1.017   6.163  0.5183 -0.1717  0.3856
  141DOPC  H13A19326   1.445   1.124   6.154  0.3326 -0.1485  0.5709
  141DOPC  H13B19327   1.380   0.968   6.087 -0.3248 -0.9943  1.5425
  141DOPC  H13C19328   1.398   1.008   6.262 -1.7610 -0.4537 -0.5576
  141DOPC   C1419329   1.651   1.009   6.287  0.1650 -0.1529  0.5103
  141DOPC  H14A19330   1.596   0.986   6.377 -0.5498 -0.0228  0.1086
  141DOPC  H14B19331   1.752   0.973   6.302 -0.2487 -1.6201 -0.0895
  141DOPC  H14C19332   1.669   1.115   6.278 -0.2664 -0.2135 -1.6209
  141DOPC   C1519333   1.576   0.817   6.165  0.5618 -0.0362 -0.2574
  141DOPC  H15A19334   1.512   0.776   6.243  0.3566 -0.8460 -0.8347
  141DOPC  H15B19335   1.670   0.767   6.183 -0.9781 -2.1077  3.3582
  141DOPC  H15C19336   1.534   0.783   6.071 -2.6252 -0.4689  1.1767
  141DOPC   C1119337   1.702   1.171   6.051  0.4400 -0.7193  0.4514
  141DOPC  H11A19338   1.762   1.198   6.140  0.2791  0.5840  0.1908
  141DOPC  H11B19339   1.768   1.193   5.964 -0.5062 -0.2231 -0.1614
  141DOPC     P19340   1.565   1.387   5.985  0.3122  0.1738 -0.1927
  141DOPC   O1319341   1.646   1.490   6.051  0.1107  0.0002 -0.0527
  141DOPC   O1419342   1.423   1.414   5.988 -0.1264 -0.1083  0.6918
  141DOPC   O1219343   1.585   1.251   6.061  0.7530 -0.5999 -0.3714
  141DOPC   O1119344   1.626   1.364   5.847 -0.2728  0.2212  0.1779
  141DOPC    C119345   1.585   1.270   5.747 -0.0396  0.2411  0.2117
  141DOPC    HA19346   1.500   1.211   5.787 -0.5689  1.6241  1.1829
  141DOPC    HB19347   1.671   1.204   5.725 -1.6010 -1.9168  0.2522
  141DOPC    C219348   1.534   1.334   5.613 -0.0799  0.1659 -0.0039
  141DOPC    HS19349   1.463   1.416   5.636 -1.0858 -0.1958 -1.6658
  141DOPC   O2119350   1.463   1.227   5.537 -0.0615 -0.3187 -0.6826
  141DOPC   C2119351   1.338   1.197   5.576  0.1189  0.9345 -0.6350
  141DOPC   O2219352   1.278   1.236   5.673 -0.2136 -0.1827 -0.3911
  141DOPC   C2219353   1.287   1.088   5.486 -0.8058  0.7331  0.1200
  141DOPC   H2R19354   1.235   1.006   5.540  0.9979 -0.1063  0.6683
  141DOPC   H2S19355   1.363   1.042   5.419 -0.4517  0.7017  0.5380
  141DOPC    C319356   1.651   1.383   5.530 -0.7215 -0.8992  0.3295
  141DOPC    HX19357   1.723   1.299   5.534  0.8202  0.4104  0.8422
  141DOPC    HY19358   1.708   1.472   5.564 -1.6978  0.5774 -1.6332
  141DOPC   O3119359   1.592   1.396   5.398 -0.0304 -0.1763 -0.8661
  141DOPC   C3119360   1.671   1.354   5.302 -0.4449  0.3833  0.1549
  141DOPC   O3219361   1.790   1.323   5.316  0.0394 -0.2819  0.6102
  141DOPC   C3219362   1.596   1.372   5.169  0.3155  0.3214  0.0824
  141DOPC   H2X19363   1.520   1.452   5.180  0.5574  0.5144  0.3494
  141DOPC   H2Y19364   1.671   1.410   5.096 -0.6233  1.3215 -0.3931
  141DOPC   C2319365   1.177   1.162   5.405 -0.2148  0.3000 -0.6887
  141DOPC   H3R19366   1.219   1.246   5.345  0.6802  1.3844  1.3855
  141DOPC   H3S19367   1.120   1.207   5.488  1.5400 -0.4207  0.9719
  141DOPC   C2419368   1.077   1.085   5.316 -1.0279  0.1708  0.5935
  141DOPC   H4R19369   0.992   1.153   5.296 -1.0767 -0.1435 -0.3228
  141DOPC   H4S19370   1.049   1.000   5.382  0.4805 -0.4123  0.5212
  141DOPC   C2519371   1.140   1.033   5.184  0.6995  0.5669  0.2558
  141DOPC   H5R19372   1.222   0.960   5.200 -1.7706 -2.1331  1.4649
  141DOPC   H5S19373   1.162   1.118   5.116 -0.0180  1.5075  1.1595
  141DOPC   C2619374   1.038   0.950   5.103 -0.3918 -0.2479  0.5144
  141DOPC   H6R19375   0.949   1.015   5.088 -0.6381 -1.1677 -2.6791
  141DOPC   H6S19376   1.007   0.863   5.165 -1.0206  0.7829  1.6946
  141DOPC   C2719377   1.084   0.890   4.974 -0.4573  0.0480 -0.0271
  141DOPC   H7R19378   0.995   0.840   4.931 -1.5602  0.1361  2.0765
  141DOPC   H7S19379   1.172   0.822   4.982  1.6154  2.4721 -0.6704
  141DOPC   C2819380   1.116   0.997   4.863 -0.3322 -0.0674  0.0817
  141DOPC   H8R19381   1.134   0.940   4.769 -0.0189  0.4289 -0.1610
  141DOPC   H8S19382   1.209   1.045   4.899 -1.6556  2.0893  0.8531
  141DOPC   C2919383   0.998   1.098   4.840 -0.6032  0.5786 -0.1923
  141DOPC   H9R19384   0.902   1.044   4.832 -0.4506  0.2645  0.0958
  141DOPC  C21019385   1.002   1.233   4.841  0.3030 -0.1795  0.0329
  141DOPC  H10R19386   0.908   1.288   4.826  1.7293  2.1702 -0.8298
  141DOPC  C21119387   1.121   1.320   4.846 -0.0134  0.2991 -0.6066
  141DOPC  H11R19388   1.213   1.262   4.870 -0.7203  0.2254  2.2849
  141DOPC  H11S19389   1.115   1.391   4.931  0.6590  0.4890 -0.7087
  141DOPC  C21219390   1.134   1.403   4.725 -0.3188  0.1030  0.0838
  141DOPC  H12R19391   1.238   1.442   4.716  0.4851 -1.8052  0.4939
  141DOPC  H12S19392   1.061   1.486   4.716  1.5565  1.7967 -0.4234
  141DOPC  C21319393   1.127   1.328   4.592 -0.6218 -0.1488  0.4034
  141DOPC  H13R19394   1.021   1.298   4.576 -0.6524 -0.0464  0.4158
  141DOPC  H13S19395   1.180   1.230   4.595  0.9222  0.6083 -0.8815
  141DOPC  C21419396   1.176   1.406   4.468  0.0928  0.3381  0.4888
  141DOPC  H14R19397   1.195   1.328   4.391  0.3816 -1.1763  2.0380
  141DOPC  H14S19398   1.275   1.448   4.497  0.0680 -0.8827  2.5342
  141DOPC  C21519399   1.067   1.490   4.413 -0.2938  0.4101  0.3715
  141DOPC  H15R19400   1.027   1.549   4.498 -0.6275 -3.2509  2.9368
  141DOPC  H15S19401   0.977   1.434   4.381 -0.8401  1.0102  0.8337
  141DOPC  C21619402   1.123   1.577   4.289  0.2986 -0.0732 -1.0365
  141DOPC  H16R19403   1.045   1.607   4.216 -1.0619 -1.3466 -0.1626
  141DOPC  H16S19404   1.201   1.512   4.245  1.5202 -1.5192  2.8395
  141DOPC  C21719405   1.180   1.717   4.330  0.6016  0.4273 -0.6180
  141DOPC  H17R19406   1.279   1.687   4.372 -0.4414 -1.1722  0.8736
  141DOPC  H17S19407   1.109   1.768   4.398  1.4012  1.7554 -0.7431
  141DOPC  C21819408   1.205   1.812   4.216 -0.4825 -0.0914  0.0840
  141DOPC  H18R19409   1.244   1.907   4.257 -2.1224  0.4354  0.4801
  141DOPC  H18S19410   1.111   1.847   4.168  0.1786  1.2482 -0.2845
  141DOPC  H18T19411   1.276   1.770   4.141  0.0819 -1.6407  1.4115
  141DOPC   C3319412   1.525   1.239   5.126  0.2670  0.1219  0.0864
  141DOPC   H3X19413   1.475   1.273   5.032  2.8703  2.8349 -0.4736
  141DOPC   H3Y19414   1.448   1.207   5.198 -0.1594  0.7787 -0.0684
  141DOPC   C3419415   1.610   1.126   5.079  0.2348  1.0880 -0.2858
  141DOPC   H4X19416   1.553   1.032   5.068  1.8248  0.1002 -0.4380
  141DOPC   H4Y19417   1.686   1.106   5.157 -1.6024 -1.2273  1.0214
  141DOPC   C3519418   1.696   1.156   4.952 -0.6020 -0.9125  0.2785
  141DOPC   H5X19419   1.804   1.133   4.961 -0.0064 -0.1942 -3.2429
  141DOPC   H5Y19420   1.696   1.266   4.934  1.4381 -1.1651 -1.6232
  141DOPC   C3619421   1.642   1.079   4.831 -0.4554 -0.2865 -0.2563
  141DOPC   H6X19422   1.708   1.082   4.742 -1.7452 -0.1320 -1.2536
  141DOPC   H6Y19423   1.622   0.970   4.845 -1.0073 -0.3762 -1.6202
  141DOPC   C3719424   1.499   1.123   4.787  0.2425 -0.2214  0.6053
  141DOPC   H7X19425   1.444   1.112   4.883 -0.1975 -0.5901  0.3168
  141DOPC   H7Y19426   1.509   1.232   4.767 -0.1285 -0.7053 -3.0395
  141DOPC   C3819427   1.444   1.053   4.666  0.3550  0.2997  0.4417
  141DOPC   H8X19428   1.334   1.050   4.654  0.5933  0.3366 -2.4404
  141DOPC   H8Y19429   1.481   0.948   4.661 -0.1317  0.1573 -0.4535
  141DOPC   C3919430   1.491   1.118   4.535 -0.0367  0.1007  0.1814
  141DOPC   H9X19431   1.585   1.174   4.545  2.2805 -3.5698  0.8474
  141DOPC  C31019432   1.441   1.101   4.417  0.1818 -0.0422  0.9018
  141DOPC  H10X19433   1.484   1.160   4.335 -1.7665 -0.1701 -0.2559
  141DOPC  C31119434   1.326   1.011   4.371 -0.7007  1.0164  0.7745
  141DOPC  H11X19435   1.310   1.032   4.263 -0.4325  0.7044  0.6691
  141DOPC  H11Y19436   1.235   1.019   4.433 -0.4982  0.4089  1.1615
  141DOPC  C31219437   1.354   0.861   4.398 -0.7874 -0.6353  0.6251
  141DOPC  H12X19438   1.269   0.799   4.362 -0.3238 -0.1995 -1.3820
  141DOPC  H12Y19439   1.354   0.850   4.508  1.5680  0.3079  0.7827
  141DOPC  C31319440   1.491   0.808   4.343 -0.3030 -0.7914  0.0867
  141DOPC  H13X19441   1.501   0.847   4.240  0.5707 -2.0350 -0.3278
  141DOPC  H13Y19442   1.587   0.846   4.384  0.4622  0.0896 -2.3265
  141DOPC  C31419443   1.488   0.655   4.336 -0.5843 -0.3209  0.1603
  141DOPC  H14X19444   1.461   0.618   4.437  1.8027 -0.2347  0.8987
  141DOPC  H14Y19445   1.417   0.617   4.260  1.5243 -0.8406 -1.6646
  141DOPC  C31519446   1.624   0.594   4.299 -0.2017 -0.0777  0.5971
  141DOPC  H15X19447   1.687   0.584   4.390 -0.9788  0.5709  1.2176
  141DOPC  H15Y19448   1.680   0.664   4.233  0.5470 -1.6468 -0.5118
  141DOPC  C31619449   1.604   0.456   4.237  0.8222 -0.0080  0.5774
  141DOPC  H16X19450   1.528   0.399   4.295  3.1642 -2.6666  1.2067
  141DOPC  H16Y19451   1.548   0.467   4.142  0.7550  2.5069  0.8253
  141DOPC  C31719452   1.736   0.371   4.231  1.0969  0.6651  0.1579
  141DOPC  H17X19453   1.765   0.330   4.331  3.0846 -1.8660 -1.3158
  141DOPC  H17Y19454   1.717   0.274   4.181 -1.3951 -0.2319  2.6012
  141DOPC  C31819455   1.856   0.441   4.168 -0.3552 -0.2237 -0.4155
  141DOPC  H18X19456   1.852   0.421   4.059  1.3376 -1.1566 -0.3482
  141DOPC  H18Y19457   1.844   0.551   4.185 -2.9580 -0.6186  0.6451
  141DOPC  H18Z19458   1.953   0.405   4.209 -0.5133  0.4080  0.5801
  142DOPC     N19459   0.613   7.310   6.291 -0.1835  0.3701 -0.1638
  142DOPC   C1219460   0.702   7.394   6.388  0.3093 -0.2506 -0.1085
  142DOPC  H12A19461   0.700   7.346   6.485  0.0872  1.1028  0.5836
  142DOPC  H12B19462   0.664   7.495   6.397  2.6349  0.7478 -0.8863
  142DOPC   C1319463   0.670   7.174   6.265 -0.1341  0.6589  0.0136
  142DOPC  H13A19464   0.653   7.103   6.345  0.2856  1.2232  0.6179
  142DOPC  H13B19465   0.629   7.128   6.177 -1.9392 -1.2975  1.7494
  142DOPC  H13C19466   0.778   7.170   6.255  0.1406 -2.9258  2.3410
  142DOPC   C1419467   0.605   7.381   6.166 -0.0208  0.0269 -0.5309
  142DOPC  H14A19468   0.705   7.388   6.126 -0.5684 -0.7377 -2.1148
  142DOPC  H14B19469   0.546   7.324   6.095 -0.3246 -2.4817  1.5942
  142DOPC  H14C19470   0.562   7.479   6.177  2.7098  1.2864 -0.1894
  142DOPC   C1519471   0.476   7.283   6.339 -0.7365  0.1073 -0.3253
  142DOPC  H15A19472   0.417   7.222   6.272  0.6930 -0.1809 -1.3794
  142DOPC  H15B19473   0.438   7.378   6.372  1.9517  0.6573  1.5429
  142DOPC  H15C19474   0.479   7.221   6.428  0.3155  0.8578  0.1787
  142DOPC   C1119475   0.843   7.414   6.341 -0.6630  0.3633 -0.3037
  142DOPC  H11A19476   0.849   7.466   6.243  1.6902  0.5890 -0.1017
  142DOPC  H11B19477   0.881   7.484   6.418 -1.1673 -0.1228  0.4019
  142DOPC     P19478   1.012   7.238   6.232 -0.1774 -0.2075  0.0861
  142DOPC   O1319479   0.966   7.112   6.174  0.2107  0.3025  0.2047
  142DOPC   O1419480   1.143   7.235   6.301 -0.6358  0.3312 -0.2714
  142DOPC   O1219481   0.910   7.289   6.341  0.0752  0.0830 -0.5358
  142DOPC   O1119482   1.013   7.339   6.113 -0.2065  0.3968  0.6927
  142DOPC    C119483   1.129   7.351   6.035 -0.5505  0.1668 -0.2888
  142DOPC    HA19484   1.158   7.257   5.982 -0.9732  0.3472 -0.8490
  142DOPC    HB19485   1.217   7.377   6.099  0.9227 -0.3648 -1.9967
  142DOPC    C219486   1.126   7.458   5.926  0.3823 -0.9077 -0.1110
  142DOPC    HS19487   1.150   7.557   5.971  2.3518 -0.6255 -1.6301
  142DOPC   O2119488   0.997   7.469   5.859  0.2504 -0.0198  0.5170
  142DOPC   C2119489   0.913   7.545   5.928  0.0022 -0.1133  0.0073
  142DOPC   O2219490   0.925   7.591   6.040  0.3644 -0.0847  0.3751
  142DOPC   C2219491   0.790   7.567   5.847  0.4513  1.2321  0.1278
  142DOPC   H2R19492   0.717   7.635   5.896 -3.6782  0.1212 -3.8155
  142DOPC   H2S19493   0.731   7.477   5.820 -1.8145  2.2398  1.4235
  142DOPC    C319494   1.241   7.446   5.814 -0.2656  1.1318 -0.2389
  142DOPC    HX19495   1.237   7.340   5.779 -2.9213  0.8499  0.7140
  142DOPC    HY19496   1.345   7.458   5.851 -0.3165  1.1203 -0.0913
  142DOPC   O3119497   1.215   7.530   5.696  0.7720  0.2670 -0.2694
  142DOPC   C3119498   1.274   7.644   5.697  0.6534 -0.7441  0.0336
  142DOPC   O3219499   1.363   7.676   5.774  0.5151  0.3007  0.0815
  142DOPC   C3219500   1.208   7.739   5.597  0.4763  0.4785  0.0772
  142DOPC   H2X19501   1.103   7.758   5.627  1.2294  3.7626  0.9869
  142DOPC   H2Y19502   1.259   7.837   5.598  0.7324  0.3495  1.1726
  142DOPC   C2319503   0.824   7.631   5.708  0.3478 -0.3019 -0.3516
  142DOPC   H3R19504   0.863   7.556   5.636  0.5803 -0.6365  0.1172
  142DOPC   H3S19505   0.887   7.721   5.724 -0.0485 -0.3234  1.5441
  142DOPC   C2419506   0.702   7.691   5.664 -0.1542 -0.0170 -0.4220
  142DOPC   H4R19507   0.676   7.771   5.736 -0.8017 -1.6139  1.2104
  142DOPC   H4S19508   0.621   7.614   5.660  0.1349 -0.2744 -2.2296
  142DOPC   C2519509   0.701   7.765   5.527 -0.3991 -0.0887 -0.3031
  142DOPC   H5R19510   0.726   7.691   5.448  0.6800  0.0651 -0.1275
  142DOPC   H5S19511   0.781   7.841   5.513 -0.7706 -0.0797 -2.9996
  142DOPC   C2619512   0.563   7.818   5.495 -0.1636 -0.3262  0.3005
  142DOPC   H6R19513   0.522   7.863   5.587  1.2567 -1.6253  1.6189
  142DOPC   H6S19514   0.505   7.728   5.465  1.1972 -0.1983 -3.3445
  142DOPC   C2719515   0.564   7.920   5.377 -0.6902  0.9344 -0.3529
  142DOPC   H7R19516   0.615   8.006   5.426 -1.1396  0.2937  1.3278
  142DOPC   H7S19517   0.459   7.945   5.352 -1.1255 -0.7173 -0.3227
  142DOPC   C2819518   0.634   7.865   5.255 -0.1516 -0.0231 -0.7054
  142DOPC   H8R19519   0.742   7.862   5.280 -0.5870  1.1872  1.6764
  142DOPC   H8S19520   0.616   7.943   5.178  1.1435  1.1854  0.1507
  142DOPC   C2919521   0.585   7.730   5.203  0.6896 -0.4174  0.2757
  142DOPC   H9R19522   0.593   7.647   5.275 -0.0822 -0.6947  0.0483
  142DOPC  C21019523   0.526   7.705   5.085  0.4129 -0.3970 -0.3337
  142DOPC  H10R19524   0.509   7.599   5.060  1.8241 -0.6470 -0.3299
  142DOPC  C21119525   0.500   7.806   4.973 -0.0124  0.2155 -0.6211
  142DOPC  H11R19526   0.547   7.906   4.987  0.8086  0.2268 -3.0827
  142DOPC  H11S19527   0.394   7.828   4.953 -0.3165  1.1116  1.6453
  142DOPC  C21219528   0.550   7.752   4.837 -0.4445 -0.0074  0.3379
  142DOPC  H12R19529   0.506   7.655   4.806  3.0232 -1.1698 -1.4179
  142DOPC  H12S19530   0.660   7.744   4.851 -0.4265  2.0767  2.0149
  142DOPC  C21319531   0.541   7.855   4.726  0.6301 -0.7047 -0.3437
  142DOPC  H13R19532   0.614   7.933   4.756  0.0479  0.1080 -0.9901
  142DOPC  H13S19533   0.440   7.901   4.733  0.1873 -1.3345 -2.0377
  142DOPC  C21419534   0.559   7.801   4.583 -0.2413  0.0678 -0.0505
  142DOPC  H14R19535   0.643   7.729   4.576  0.7750  1.3508 -1.9860
  142DOPC  H14S19536   0.585   7.888   4.518  0.6058  1.4986  2.0807
  142DOPC  C21519537   0.435   7.730   4.544  1.1084 -0.2644  0.7553
  142DOPC  H15R19538   0.357   7.803   4.575  0.2867 -0.4162 -0.8482
  142DOPC  H15S19539   0.427   7.639   4.608 -1.1166  0.1739  1.1883
  142DOPC  C21619540   0.434   7.674   4.409 -0.2963  0.0684 -0.2601
  142DOPC  H16R19541   0.537   7.639   4.387  0.0868 -0.2580  1.8531
  142DOPC  H16S19542   0.407   7.757   4.341 -1.2175 -0.8189 -1.0012
  142DOPC  C21719543   0.341   7.558   4.371  0.2788 -0.0180  0.0907
  142DOPC  H17R19544   0.236   7.591   4.383 -0.2795 -0.2323 -3.2864
  142DOPC  H17S19545   0.362   7.469   4.435  0.3346 -1.9196 -2.3982
  142DOPC  C21819546   0.355   7.502   4.224 -0.5021 -0.1000  0.1453
  142DOPC  H18R19547   0.457   7.472   4.193 -0.3815  1.2112 -0.8231
  142DOPC  H18S19548   0.325   7.579   4.149 -1.1485 -0.5819 -0.1019
  142DOPC  H18T19549   0.286   7.416   4.211 -0.2665  0.0859 -3.5114
  142DOPC   C3319550   1.188   7.683   5.450  0.1664 -0.0465  0.0905
  142DOPC   H3X19551   1.130   7.589   5.454 -0.1912  0.2101  2.5193
  142DOPC   H3Y19552   1.283   7.651   5.401  0.2878 -0.9136  0.8785
  142DOPC   C3419553   1.103   7.763   5.347 -0.0231  0.2937 -0.7960
  142DOPC   H4X19554   1.153   7.860   5.324  1.0535 -0.0701 -0.1039
  142DOPC   H4Y19555   1.004   7.788   5.390 -0.2026  1.8568 -2.0164
  142DOPC   C3519556   1.081   7.692   5.216 -0.4647  0.0781 -0.2349
  142DOPC   H5X19557   1.064   7.583   5.232 -0.0011 -0.1273 -1.0753
  142DOPC   H5Y19558   1.172   7.705   5.154 -1.5855  0.6700 -1.8326
  142DOPC   C3619559   0.963   7.738   5.138 -0.6978 -0.0978 -0.7190
  142DOPC   H6X19560   0.869   7.705   5.188 -2.2912 -0.0679 -3.5077
  142DOPC   H6Y19561   0.947   7.847   5.142  0.8905  0.1501 -0.0110
  142DOPC   C3719562   0.959   7.694   4.990  0.1843 -0.7241  0.5526
  142DOPC   H7X19563   1.004   7.592   4.986  0.9628 -0.3607 -2.2496
  142DOPC   H7Y19564   0.851   7.687   4.967  0.1086  0.3947  0.4924
  142DOPC   C3819565   1.037   7.783   4.899  0.2022 -0.2154  0.4098
  142DOPC   H8X19566   1.044   7.723   4.805  1.5820  0.4966  0.0194
  142DOPC   H8Y19567   1.138   7.794   4.944  0.0507 -0.5408  0.8379
  142DOPC   C3919568   0.987   7.922   4.862 -0.1504  0.6058 -0.5020
  142DOPC   H9X19569   0.989   7.981   4.954 -1.6455  0.0316 -0.0628
  142DOPC  C31019570   0.929   7.957   4.747 -0.0667 -0.7230  0.1611
  142DOPC  H10X19571   0.903   8.063   4.733  1.2730 -0.4270 -0.1899
  142DOPC  C31119572   0.899   7.861   4.631 -0.1637  0.0561  0.3241
  142DOPC  H11X19573   0.811   7.893   4.570 -0.7559 -1.4681  0.3355
  142DOPC  H11Y19574   0.870   7.761   4.669  2.4316 -0.8159  0.1973
  142DOPC  C31219575   1.027   7.848   4.546 -0.0202  0.4004 -0.3674
  142DOPC  H12X19576   1.013   7.778   4.461  2.3534  1.5311 -1.7933
  142DOPC  H12Y19577   1.117   7.817   4.602  0.3680  0.6025 -0.8730
  142DOPC  C31319578   1.056   7.984   4.473 -0.7565 -0.3584 -0.0380
  142DOPC  H13X19579   0.966   8.012   4.414 -1.8455 -1.7368  0.8636
  142DOPC  H13Y19580   1.079   8.064   4.546  1.9323 -0.6444 -0.4809
  142DOPC  C31419581   1.167   7.975   4.365 -0.7019 -0.2377  0.6275
  142DOPC  H14X19582   1.261   7.956   4.421 -1.1524 -2.5100  0.7083
  142DOPC  H14Y19583   1.154   7.881   4.308  0.9815  0.4236 -0.9371
  142DOPC  C31519584   1.179   8.103   4.278 -0.2891  0.1767  0.7966
  142DOPC  H15X19585   1.199   8.192   4.342  1.2620 -0.3409  1.0634
  142DOPC  H15Y19586   1.091   8.112   4.210  0.1251  1.1110  0.3631
  142DOPC  C31619587   1.298   8.084   4.178 -0.1969 -0.8498  0.3192
  142DOPC  H16X19588   1.392   8.060   4.232 -0.7385  1.0905  2.2796
  142DOPC  H16Y19589   1.275   7.996   4.115 -1.4834 -1.6639  1.8586
  142DOPC  C31719590   1.326   8.200   4.086 -0.1577 -0.4903  0.0782
  142DOPC  H17X19591   1.332   8.293   4.148 -0.1954 -0.1564 -0.4082
  142DOPC  H17Y19592   1.427   8.180   4.044 -0.1203 -1.3276  0.5690
  142DOPC  C31819593   1.223   8.208   3.971 -0.5144 -0.2366  0.6916
  142DOPC  H18X19594   1.215   8.114   3.912  0.7103 -0.0617  0.2029
  142DOPC  H18Y19595   1.122   8.241   4.003 -0.0431  2.0023  0.0353
  142DOPC  H18Z19596   1.259   8.283   3.897  0.5115  0.3837  1.7926
  143DOPC     N19597   2.345   1.959   6.294 -0.0642 -0.7169  0.3323
  143DOPC   C1219598   2.275   2.096   6.324 -0.0350  0.2436 -0.5574
  143DOPC  H12A19599   2.273   2.120   6.430  1.4371  1.9166 -0.8575
  143DOPC  H12B19600   2.172   2.088   6.294  0.0642  0.8389 -1.0825
  143DOPC   C1319601   2.361   1.936   6.144  0.2087  0.4613  0.3240
  143DOPC  H13A19602   2.412   2.023   6.107 -2.9149  2.5871  0.6367
  143DOPC  H13B19603   2.419   1.848   6.124 -1.8270 -0.6627 -1.0403
  143DOPC  H13C19604   2.260   1.930   6.106  0.4543  1.5925 -0.5450
  143DOPC   C1419605   2.284   1.848   6.362 -0.2497 -0.5509 -0.7162
  143DOPC  H14A19606   2.350   1.764   6.378  0.1466 -0.1588 -0.2634
  143DOPC  H14B19607   2.246   1.873   6.460  1.2100  0.8613 -0.4813
  143DOPC  H14C19608   2.197   1.816   6.306  1.0250  0.3704 -3.3664
  143DOPC   C1519609   2.483   1.970   6.345 -0.2349  0.5477  0.0456
  143DOPC  H15A19610   2.480   1.980   6.452  1.8080  1.7161  0.0559
  143DOPC  H15B19611   2.535   2.053   6.299 -0.8492  1.1733  0.4626
  143DOPC  H15C19612   2.524   1.874   6.315 -0.7759  0.1424  0.5707
  143DOPC   C1119613   2.336   2.223   6.257 -1.0175  0.0127 -0.1756
  143DOPC  H11A19614   2.317   2.319   6.311  0.6609  1.7688 -2.4966
  143DOPC  H11B19615   2.446   2.213   6.249 -0.8467  0.9991  0.6684
  143DOPC     P19616   2.155   2.315   6.088 -0.7363  0.0529  0.3156
  143DOPC   O1319617   2.161   2.437   6.169  0.1298 -0.6014  0.0841
  143DOPC   O1419618   2.039   2.225   6.110 -0.0310  0.6072  0.4614
  143DOPC   O1219619   2.287   2.234   6.122  0.4907 -0.7292 -0.0123
  143DOPC   O1119620   2.172   2.345   5.928  0.2770 -0.0578 -0.0651
  143DOPC    C119621   2.205   2.228   5.856 -0.1739 -0.1059 -0.1123
  143DOPC    HA19622   2.120   2.157   5.866 -0.9511  0.7622 -0.3603
  143DOPC    HB19623   2.296   2.178   5.893 -0.4026 -0.1779  0.3537
  143DOPC    C219624   2.226   2.265   5.706  0.1590  0.3866 -0.4465
  143DOPC    HS19625   2.291   2.355   5.696 -0.6876  0.9989 -0.5164
  143DOPC   O2119626   2.095   2.295   5.658  0.1040 -0.1144  0.2919
  143DOPC   C2119627   2.094   2.391   5.563  0.1693 -0.2762  0.1218
  143DOPC   O2219628   2.188   2.465   5.528 -0.3147  0.2176 -0.0329
  143DOPC   C2219629   1.947   2.427   5.545 -0.8737  0.5814  0.0669
  143DOPC   H2R19630   1.921   2.494   5.630 -0.7165  2.1964 -1.1068
  143DOPC   H2S19631   1.891   2.331   5.545 -1.4124  0.7699 -3.2219
  143DOPC    C319632   2.287   2.148   5.628 -0.3435 -0.0224  0.2412
  143DOPC    HX19633   2.219   2.065   5.656  0.7482 -0.8778  0.3832
  143DOPC    HY19634   2.388   2.118   5.662  0.4278  3.4353  1.4385
  143DOPC   O3119635   2.271   2.154   5.478 -0.3882 -0.5336  0.0157
  143DOPC   C3119636   2.367   2.219   5.422 -0.0630  0.0928  0.1148
  143DOPC   O3219637   2.452   2.279   5.484 -0.0638  0.2690 -0.1584
  143DOPC   C3219638   2.364   2.214   5.271  0.0155  0.0825 -0.1599
  143DOPC   H2X19639   2.258   2.213   5.239 -0.5900  0.0825  1.7427
  143DOPC   H2Y19640   2.413   2.302   5.224  0.2442  1.3901  2.3772
  143DOPC   C2319641   1.910   2.506   5.417  0.1053 -0.1423 -0.0742
  143DOPC   H3R19642   1.975   2.596   5.409  0.7087 -0.3869  1.6605
  143DOPC   H3S19643   1.803   2.536   5.415  0.2498  0.4180  0.4536
  143DOPC   C2419644   1.929   2.406   5.297  0.0077  0.0773 -0.6585
  143DOPC   H4R19645   1.859   2.319   5.303 -0.9416  0.7776 -1.1544
  143DOPC   H4S19646   2.037   2.382   5.297  0.0888  0.3900 -1.7731
  143DOPC   C2519647   1.884   2.463   5.161 -0.3837  0.0985  0.9257
  143DOPC   H5R19648   1.922   2.567   5.154 -2.7083  1.0429  1.3734
  143DOPC   H5S19649   1.773   2.465   5.169 -0.3998 -0.9633  1.1686
  143DOPC   C2619650   1.933   2.385   5.043  0.5327  0.5651 -0.1697
  143DOPC   H6R19651   1.877   2.289   5.041 -0.5847  1.1498  1.6046
  143DOPC   H6S19652   2.043   2.373   5.052  0.5629  0.4353 -0.6793
  143DOPC   C2719653   1.904   2.454   4.914  0.9251  0.3001 -0.1267
  143DOPC   H7R19654   1.960   2.550   4.923  0.5030  0.4551  1.0868
  143DOPC   H7S19655   1.800   2.493   4.911  0.7782  0.0087  0.7027
  143DOPC   C2819656   1.935   2.376   4.782 -0.2572  0.0158  0.0717
  143DOPC   H8R19657   2.043   2.351   4.791 -0.1827  0.3046  0.0053
  143DOPC   H8S19658   1.935   2.436   4.688  2.5847  1.3004  0.7554
  143DOPC   C2919659   1.847   2.258   4.770  0.0958 -0.0734 -0.0981
  143DOPC   H9R19660   1.752   2.257   4.826 -0.2211 -0.4660 -0.6401
  143DOPC  C21019661   1.858   2.158   4.689 -0.1317 -0.4561 -0.4401
  143DOPC  H10R19662   1.771   2.093   4.675 -0.7634  0.2278  0.2200
  143DOPC  C21119663   1.980   2.135   4.607  0.6990 -0.0650 -0.3899
  143DOPC  H11R19664   2.014   2.031   4.623 -2.4383 -1.1660 -0.3050
  143DOPC  H11S19665   2.065   2.194   4.649  0.9937 -1.4197  0.9810
  143DOPC  C21219666   1.957   2.167   4.454  0.2064  0.2042 -0.2091
  143DOPC  H12R19667   1.921   2.272   4.451  0.3783  0.2925  0.6079
  143DOPC  H12S19668   1.874   2.100   4.424 -0.1484  0.4343  0.2429
  143DOPC  C21319669   2.085   2.157   4.374 -0.4556  0.0697 -0.0197
  143DOPC  H13R19670   2.133   2.060   4.394 -2.3591 -1.2732 -1.5352
  143DOPC  H13S19671   2.148   2.241   4.410 -1.6540  1.1443 -0.3487
  143DOPC  C21419672   2.072   2.191   4.221  0.6528  0.1615 -0.3955
  143DOPC  H14R19673   2.166   2.168   4.166 -0.4747  0.2970 -2.4633
  143DOPC  H14S19674   2.048   2.299   4.207 -0.5693 -0.2336 -1.5569
  143DOPC  C21519675   1.973   2.093   4.156  0.3473  0.0300  0.2521
  143DOPC  H15R19676   1.866   2.118   4.172  0.0995 -1.2284  0.6870
  143DOPC  H15S19677   1.989   1.994   4.205 -1.2482  0.1978  1.1744
  143DOPC  C21619678   2.000   2.076   4.002  0.0821 -0.0013  0.0000
  143DOPC  H16R19679   2.103   2.043   3.974 -0.1131 -1.3730  0.7934
  143DOPC  H16S19680   1.981   2.177   3.960  1.3410  0.5658  0.7147
  143DOPC  C21719681   1.899   1.974   3.941  0.5260  0.2219  0.2386
  143DOPC  H17R19682   1.793   2.007   3.954  0.6035 -0.2093  2.3702
  143DOPC  H17S19683   1.909   1.882   4.002  1.6451 -0.9694 -1.6530
  143DOPC  C21819684   1.934   1.935   3.799 -0.5861  0.2990 -0.3759
  143DOPC  H18R19685   2.011   1.856   3.789 -1.3625 -0.7070  1.2128
  143DOPC  H18S19686   1.970   2.022   3.739  2.1177 -1.4973 -1.5635
  143DOPC  H18T19687   1.849   1.881   3.753 -0.8056  0.6699 -0.4108
  143DOPC   C3319688   2.441   2.087   5.219 -0.2397 -0.0605 -0.1341
  143DOPC   H3X19689   2.385   1.995   5.246 -0.9824  0.2393 -0.6182
  143DOPC   H3Y19690   2.533   2.077   5.280 -1.2905  1.3320  1.8207
  143DOPC   C3419691   2.456   2.095   5.073  0.2539  0.2455 -0.1556
  143DOPC   H4X19692   2.520   2.012   5.035  0.8469  1.5113 -2.0617
  143DOPC   H4Y19693   2.500   2.191   5.038 -2.4924  0.8731 -2.1747
  143DOPC   C3519694   2.312   2.093   5.003  0.3528  0.0081 -0.2641
  143DOPC   H5X19695   2.246   2.172   5.045  0.5505 -0.5362  1.1310
  143DOPC   H5Y19696   2.260   1.998   5.029  0.3391  0.4362  1.3519
  143DOPC   C3619697   2.323   2.120   4.855  0.3144 -0.1187  0.1356
  143DOPC   H6X19698   2.219   2.136   4.819 -0.4581 -2.0492  1.3669
  143DOPC   H6Y19699   2.385   2.213   4.852  0.2467 -0.0360  1.0033
  143DOPC   C3719700   2.377   2.002   4.765 -0.3225  0.0728  0.5294
  143DOPC   H7X19701   2.470   1.956   4.803 -0.4259  1.3062  2.4025
  143DOPC   H7Y19702   2.301   1.921   4.775  0.7561 -1.1326 -0.6478
  143DOPC   C3819703   2.376   2.034   4.612  0.1326 -0.2131  0.4564
  143DOPC   H8X19704   2.285   2.092   4.587  0.8434  0.0188 -1.7919
  143DOPC   H8Y19705   2.379   1.941   4.552  0.0691 -0.4539  0.8205
  143DOPC   C3919706   2.489   2.129   4.577  0.9841 -0.7870 -0.6269
  143DOPC   H9X19707   2.501   2.224   4.630 -1.7327 -1.3356  1.1721
  143DOPC  C31019708   2.564   2.120   4.466 -0.0569  0.4119 -0.7911
  143DOPC  H10X19709   2.652   2.185   4.450  0.5890 -0.4348 -0.7150
  143DOPC  C31119710   2.560   2.015   4.355  0.4759  0.0144 -0.3880
  143DOPC  H11X19711   2.553   1.910   4.390  0.1201  0.0284 -0.4148
  143DOPC  H11Y19712   2.649   2.020   4.289  0.8386 -0.9446  0.0172
  143DOPC  C31219713   2.440   2.024   4.258  1.2820 -0.7607  0.0355
  143DOPC  H12X19714   2.452   2.115   4.195 -0.0310 -1.3162 -1.0438
  143DOPC  H12Y19715   2.350   2.037   4.322  0.8941  1.0811 -0.7981
  143DOPC  C31319716   2.431   1.908   4.168  0.5092  0.1834  0.2814
  143DOPC  H13X19717   2.516   1.909   4.097 -1.8201  0.1248 -2.7255
  143DOPC  H13Y19718   2.433   1.810   4.221 -0.6360  0.0723  0.1551
  143DOPC  C31419719   2.305   1.921   4.083 -0.1432 -0.5040 -0.0156
  143DOPC  H14X19720   2.216   1.896   4.145 -0.4832  1.0616  0.1665
  143DOPC  H14Y19721   2.298   2.030   4.063  2.0020 -0.2986  0.1205
  143DOPC  C31519722   2.320   1.839   3.955 -0.2855  0.5559 -0.0760
  143DOPC  H15X19723   2.416   1.837   3.899 -0.2910  1.4969 -0.1317
  143DOPC  H15Y19724   2.251   1.884   3.880  1.4072  1.7324 -0.9808
  143DOPC  C31619725   2.282   1.690   3.990  0.0609 -0.5520  0.3082
  143DOPC  H16X19726   2.336   1.661   4.083 -2.5053  1.4612  2.5837
  143DOPC  H16Y19727   2.175   1.679   4.017 -0.1244 -1.3286 -0.6876
  143DOPC  C31719728   2.292   1.583   3.885 -0.1445  0.4272  0.5197
  143DOPC  H17X19729   2.393   1.583   3.839  0.6773  0.2404  2.2520
  143DOPC  H17Y19730   2.266   1.482   3.922 -0.5535  0.3177 -0.0527
  143DOPC  C31819731   2.195   1.610   3.774  0.3733  0.1881  0.2212
  143DOPC  H18X19732   2.087   1.620   3.801 -0.2642 -2.0256 -1.2058
  143DOPC  H18Y19733   2.226   1.702   3.722  0.1643  0.3665  0.4070
  143DOPC  H18Z19734   2.198   1.524   3.704 -1.8084  0.4481 -0.2637
  144DOPC     N19735   8.501  12.349   6.911 -0.0824 -0.0348  0.1631
  144DOPC   C1219736   8.370  12.339   6.831 -0.0571  0.2683  0.2009
  144DOPC  H12A19737   8.298  12.414   6.859 -0.8675 -0.3069 -0.2941
  144DOPC  H12B19738   8.324  12.247   6.864  0.3252 -0.4315 -1.1246
  144DOPC   C1319739   8.576  12.473   6.875 -0.3972  0.2960 -0.1362
  144DOPC  H13A19740   8.585  12.461   6.768 -1.2092 -0.3943 -0.1381
  144DOPC  H13B19741   8.522  12.566   6.890  1.8818  2.2350 -2.8551
  144DOPC  H13C19742   8.672  12.479   6.922  0.6518  0.9757 -2.2318
  144DOPC   C1419743   8.584  12.225   6.871  0.5275 -0.8784 -0.3074
  144DOPC  H14A19744   8.614  12.225   6.767  0.2176 -1.8457 -0.4042
  144DOPC  H14B19745   8.669  12.218   6.938  1.1132  1.8535 -0.6336
  144DOPC  H14C19746   8.516  12.142   6.875 -2.2290  1.0514 -2.9775
  144DOPC   C1519747   8.473  12.351   7.059  0.0142  0.3235 -0.1218
  144DOPC  H15A19748   8.558  12.396   7.109 -1.7991  2.2575  1.3936
  144DOPC  H15B19749   8.461  12.254   7.104  1.6784  0.3475  0.4607
  144DOPC  H15C19750   8.395  12.423   7.081 -0.2775  0.7579 -2.3169
  144DOPC   C1119751   8.369  12.320   6.674 -0.3216  0.1300  0.7286
  144DOPC  H11A19752   8.265  12.324   6.635 -0.1076  1.8182  0.2340
  144DOPC  H11B19753   8.418  12.409   6.628  1.7792 -1.2245  0.2270
  144DOPC     P19754   8.363  12.071   6.640 -0.3875 -0.0962 -0.1076
  144DOPC   O1319755   8.300  12.055   6.775 -0.4198 -0.3195  0.4237
  144DOPC   O1419756   8.448  11.956   6.596  0.9297  0.1047 -0.2366
  144DOPC   O1219757   8.444  12.206   6.635 -0.2409  0.2874 -0.1895
  144DOPC   O1119758   8.255  12.114   6.540  0.1202  0.5979  1.0804
  144DOPC    C119759   8.212  12.025   6.437 -0.5470  0.6626 -0.3050
  144DOPC    HA19760   8.109  12.060   6.412  0.0882  2.1189 -0.9427
  144DOPC    HB19761   8.215  11.918   6.466  3.3795  0.7258 -0.0006
  144DOPC    C219762   8.296  12.045   6.306 -0.7728 -0.5533  0.8392
  144DOPC    HS19763   8.390  11.986   6.305  0.5628  1.4429  1.6949
  144DOPC   O2119764   8.317  12.186   6.289 -0.5752  0.4017 -0.1732
  144DOPC   C2119765   8.441  12.220   6.276  0.5461  0.2198 -0.3764
  144DOPC   O2219766   8.545  12.156   6.280  0.1540  0.5625 -0.0409
  144DOPC   C2219767   8.449  12.375   6.273 -0.0046  0.6719 -0.3462
  144DOPC   H2R19768   8.480  12.405   6.375 -0.9051 -0.0016  0.1365
  144DOPC   H2S19769   8.349  12.418   6.249  0.0927  1.1450  0.0943
  144DOPC    C319770   8.216  11.994   6.185 -0.3446  0.7113 -0.6576
  144DOPC    HX19771   8.126  12.058   6.175 -0.8192 -0.0425 -1.3488
  144DOPC    HY19772   8.193  11.889   6.211  1.3059  0.4925  0.0863
  144DOPC   O3119773   8.301  11.983   6.071  0.0403  0.6158 -0.0572
  144DOPC   C3119774   8.293  12.076   5.977  0.5025 -0.2310  0.2667
  144DOPC   O3219775   8.223  12.178   5.984 -0.0719 -0.0893 -0.7764
  144DOPC   C3219776   8.385  12.038   5.863 -0.1088  0.3578  0.7469
  144DOPC   H2X19777   8.488  12.054   5.902  0.6423 -1.5904 -0.3192
  144DOPC   H2Y19778   8.369  11.930   5.842  3.0232 -0.5461  2.3818
  144DOPC   C2319779   8.558  12.421   6.177 -0.4316 -0.8692  0.1851
  144DOPC   H3R19780   8.518  12.405   6.074  2.1111  0.0359 -1.0420
  144DOPC   H3S19781   8.658  12.375   6.183 -0.7448 -1.3575  3.1338
  144DOPC   C2419782   8.583  12.575   6.194  0.1813 -0.0354  0.2311
  144DOPC   H4R19783   8.598  12.603   6.300 -1.2206 -0.3222  0.5236
  144DOPC   H4S19784   8.493  12.633   6.163  0.9747  1.8434  1.2921
  144DOPC   C2519785   8.700  12.623   6.110 -0.0382 -0.5468 -0.4094
  144DOPC   H5R19786   8.660  12.614   6.007 -0.2931  0.6540 -0.4288
  144DOPC   H5S19787   8.783  12.550   6.121  1.7079  1.3525 -0.2135
  144DOPC   C2619788   8.750  12.764   6.134 -0.6318  0.1312  0.2484
  144DOPC   H6R19789   8.753  12.778   6.244  0.0281  1.3210  0.0994
  144DOPC   H6S19790   8.678  12.840   6.097  1.8638  1.5327 -2.1293
  144DOPC   C2719791   8.886  12.793   6.070 -0.7634  0.3245  0.1053
  144DOPC   H7R19792   8.960  12.726   6.120 -1.8833 -0.7840  0.3048
  144DOPC   H7S19793   8.917  12.896   6.098  1.1315 -0.3769  0.8001
  144DOPC   C2819794   8.880  12.770   5.918  0.2917 -0.1774 -0.6307
  144DOPC   H8R19795   8.797  12.827   5.871  2.4014  4.0550  0.2546
  144DOPC   H8S19796   8.857  12.663   5.898 -1.1178  0.2110 -1.2257
  144DOPC   C2919797   8.997  12.802   5.841 -0.5591 -0.0085 -0.5171
  144DOPC   H9R19798   8.983  12.901   5.795 -0.1361 -0.4212 -1.5697
  144DOPC  C21019799   9.108  12.726   5.842  0.5526 -0.6387  0.1739
  144DOPC  H10R19800   9.199  12.763   5.791  0.8490  0.4107  1.4068
  144DOPC  C21119801   9.110  12.585   5.897  0.3509 -0.3916  0.2324
  144DOPC  H11R19802   9.025  12.525   5.858 -1.0202  1.4163  0.2577
  144DOPC  H11S19803   9.091  12.599   6.005  0.9358  3.0641  0.0162
  144DOPC  C21219804   9.251  12.520   5.881  0.1870 -0.2488  0.1117
  144DOPC  H12R19805   9.262  12.427   5.942  1.4250  0.5335  1.1442
  144DOPC  H12S19806   9.337  12.586   5.906 -0.2636  1.2233 -1.9547
  144DOPC  C21319807   9.280  12.475   5.730  0.1482  0.2838 -0.8674
  144DOPC  H13R19808   9.270  12.569   5.671  1.4885  0.2929 -1.1260
  144DOPC  H13S19809   9.193  12.414   5.698  1.5329 -1.6705 -1.0754
  144DOPC  C21419810   9.420  12.423   5.701  0.3408 -0.2543 -0.4552
  144DOPC  H14R19811   9.438  12.402   5.594  0.9029  0.2421 -0.4605
  144DOPC  H14S19812   9.433  12.322   5.744  0.4570 -0.1525 -0.2488
  144DOPC  C21519813   9.544  12.514   5.741  0.2509  0.1269 -0.9911
  144DOPC  H15R19814   9.551  12.526   5.851  0.4862 -0.9317 -0.8764
  144DOPC  H15S19815   9.533  12.619   5.708  1.7513  0.8272  0.6304
  144DOPC  C21619816   9.683  12.459   5.701 -0.6983  0.5843 -0.2243
  144DOPC  H16R19817   9.678  12.409   5.602 -0.8829 -1.1313  0.6183
  144DOPC  H16S19818   9.719  12.382   5.773 -0.6355  1.6303  0.9094
  144DOPC  C21719819   9.777  12.573   5.707  0.0510 -0.2598 -0.0574
  144DOPC  H17R19820   9.760  12.625   5.804  1.5027  0.5067 -0.1783
  144DOPC  H17S19821   9.753  12.658   5.640 -0.9983  1.1651  2.0166
  144DOPC  C21819822   9.924  12.535   5.684 -0.5992  0.4673 -0.1065
  144DOPC  H18R19823   9.928  12.492   5.582 -1.2266  0.9255 -0.3276
  144DOPC  H18S19824   9.961  12.460   5.758  0.3357  2.6893  1.8262
  144DOPC  H18T19825   9.994  12.621   5.693  0.8303 -0.5673 -0.9859
  144DOPC   C3319826   8.356  12.137   5.742  0.1971 -0.0104 -0.4084
  144DOPC   H3X19827   8.378  12.239   5.780 -0.7657  0.3736 -0.8225
  144DOPC   H3Y19828   8.246  12.133   5.724  0.2447 -0.1985 -0.6619
  144DOPC   C3419829   8.446  12.101   5.618  0.1835  0.2105 -0.2565
  144DOPC   H4X19830   8.426  11.993   5.601  1.5374 -0.2832  1.1001
  144DOPC   H4Y19831   8.553  12.115   5.642 -0.0702 -0.3620  1.3227
  144DOPC   C3519832   8.423  12.177   5.484  0.0709 -0.1270  0.1228
  144DOPC   H5X19833   8.405  12.285   5.499 -0.1676 -0.3155  1.3083
  144DOPC   H5Y19834   8.324  12.133   5.456  0.1136 -1.3144  1.7084
  144DOPC   C3619835   8.528  12.155   5.376  0.9882  0.2940 -0.4596
  144DOPC   H6X19836   8.627  12.195   5.408  0.0278  0.6199  2.4371
  144DOPC   H6Y19837   8.551  12.047   5.364  2.7429  0.5759  0.1191
  144DOPC   C3719838   8.495  12.238   5.251  0.3181  0.1736 -0.0721
  144DOPC   H7X19839   8.408  12.198   5.194 -1.0644  0.0215  2.0375
  144DOPC   H7Y19840   8.471  12.346   5.261 -0.3201  0.2602 -2.1246
  144DOPC   C3819841   8.602  12.233   5.138  0.1084  0.0467 -0.1208
  144DOPC   H8X19842   8.619  12.125   5.118  0.8371  0.3097 -0.9468
  144DOPC   H8Y19843   8.693  12.271   5.189  0.2325 -0.1404 -0.2015
  144DOPC   C3919844   8.568  12.303   5.012  0.1485 -0.5724  0.2874
  144DOPC   H9X19845   8.502  12.245   4.946 -2.9299  2.8651 -0.0523
  144DOPC  C31019846   8.619  12.420   4.966 -1.2468  0.9280 -0.2359
  144DOPC  H10X19847   8.593  12.458   4.866 -1.0732  1.5274 -0.0517
  144DOPC  C31119848   8.700  12.517   5.043 -0.0506  0.5501 -0.3812
  144DOPC  H11X19849   8.795  12.521   4.985 -0.5946 -2.0383 -1.5967
  144DOPC  H11Y19850   8.730  12.478   5.143 -0.7683  0.5489 -0.1671
  144DOPC  C31219851   8.623  12.648   5.061 -0.2930 -0.6059 -0.6755
  144DOPC  H12X19852   8.589  12.679   4.959  0.7720 -1.5513 -1.3454
  144DOPC  H12Y19853   8.692  12.727   5.097 -1.7003  0.5894 -0.5400
  144DOPC  C31319854   8.499  12.643   5.157 -0.1968  0.1687  0.3940
  144DOPC  H13X19855   8.419  12.605   5.090 -0.1676 -0.7107  0.8314
  144DOPC  H13Y19856   8.500  12.567   5.239  0.8572 -0.9749 -0.6422
  144DOPC  C31419857   8.461  12.778   5.224  0.4227  0.4567 -0.6191
  144DOPC  H14X19858   8.537  12.779   5.304  0.6394 -0.4582 -0.7979
  144DOPC  H14Y19859   8.480  12.851   5.143  2.6148  1.4536  0.7243
  144DOPC  C31519860   8.321  12.787   5.288 -0.1134 -0.3155 -0.7715
  144DOPC  H15X19861   8.315  12.885   5.339 -1.3057 -0.5109 -0.4866
  144DOPC  H15Y19862   8.322  12.717   5.374 -1.1896  1.2341  0.5561
  144DOPC  C31619863   8.208  12.763   5.187  0.4899 -0.3712  0.2266
  144DOPC  H16X19864   8.218  12.830   5.099 -1.6547  0.7768  0.7671
  144DOPC  H16Y19865   8.215  12.657   5.155 -1.5788  0.2176 -2.5704
  144DOPC  C31719866   8.073  12.781   5.255  0.5156 -1.1464  0.4056
  144DOPC  H17X19867   8.081  12.733   5.354 -1.6510 -0.7883  0.8191
  144DOPC  H17Y19868   8.057  12.891   5.262 -1.6350 -1.3591 -0.3064
  144DOPC  C31819869   7.946  12.727   5.182  0.4823 -0.3800  0.2408
  144DOPC  H18X19870   7.973  12.623   5.155  0.8271 -0.1892 -0.1781
  144DOPC  H18Y19871   7.852  12.728   5.241  0.0794  2.0248 -0.3128
  144DOPC  H18Z19872   7.929  12.788   5.091 -2.1470 -0.5231  0.5710
  145DOPC     N19873  10.124   9.225   6.116  0.0233 -0.1857 -0.2491
  145DOPC   C1219874  10.085   9.224   5.969  0.1750  0.0553  0.2094
  145DOPC  H12A19875   9.994   9.280   5.953 -2.2604 -3.5359  0.4323
  145DOPC  H12B19876  10.067   9.123   5.936 -3.3070  1.4008 -2.5812
  145DOPC   C1319877  10.023   9.159   6.200 -0.3524 -0.6626 -0.1892
  145DOPC  H13A19878  10.047   9.166   6.305 -1.4685  2.4320 -0.0084
  145DOPC  H13B19879   9.929   9.213   6.191 -0.5607 -0.6159  1.8277
  145DOPC  H13C19880  10.007   9.056   6.173  3.4688 -1.4550  0.0729
  145DOPC   C1419881  10.133   9.367   6.166  0.1964 -0.1509 -0.2426
  145DOPC  H14A19882  10.036   9.414   6.172  0.0413 -0.6569  1.6923
  145DOPC  H14B19883  10.178   9.380   6.263 -0.8145  0.3988  0.1634
  145DOPC  H14C19884  10.201   9.420   6.099  1.0437 -3.4591 -2.2484
  145DOPC   C1519885  10.258   9.168   6.122 -0.3209  0.3834 -0.6414
  145DOPC  H15A19886  10.325   9.208   6.047 -1.2753  2.1271 -0.5952
  145DOPC  H15B19887  10.265   9.061   6.108  0.7586 -0.3760  4.1001
  145DOPC  H15C19888  10.309   9.187   6.216 -2.3779 -2.4251  1.2199
  145DOPC   C1119889  10.189   9.273   5.865 -0.7918 -0.1168 -0.0094
  145DOPC  H11A19890  10.131   9.286   5.771  0.7617  0.0728 -0.9798
  145DOPC  H11B19891  10.213   9.374   5.904 -1.3415 -0.2596  0.7056
  145DOPC     P19892  10.326   9.085   5.736  0.3039  0.1553  0.2094
  145DOPC   O1319893  10.249   8.966   5.775  0.1050 -0.4252  0.2679
  145DOPC   O1419894  10.477   9.079   5.718  0.4870  0.9349  0.0852
  145DOPC   O1219895  10.303   9.185   5.852 -0.2830  0.7287 -0.3602
  145DOPC   O1119896  10.276   9.158   5.607 -0.0413 -0.2939  0.3280
  145DOPC    C119897  10.336   9.287   5.574 -0.6785  0.4207 -0.2806
  145DOPC    HA19898  10.433   9.310   5.623 -0.4267  0.7044 -0.8908
  145DOPC    HB19899  10.267   9.371   5.595  0.9266  1.1178  2.7552
  145DOPC    C219900  10.371   9.288   5.419 -0.0882 -0.5739 -0.8320
  145DOPC    HS19901  10.431   9.379   5.398 -2.1218  0.5230 -2.1580
  145DOPC   O2119902  10.252   9.309   5.335 -0.2489 -0.1616 -0.0176
  145DOPC   C2119903  10.206   9.433   5.331  0.0990 -0.8485  0.2566
  145DOPC   O2219904  10.240   9.527   5.400  0.0705 -0.0583 -0.2142
  145DOPC   C2219905  10.097   9.440   5.228  0.0872 -0.3340 -0.0633
  145DOPC   H2R19906  10.004   9.451   5.288  0.7633 -2.5417  1.4991
  145DOPC   H2S19907  10.096   9.345   5.171 -0.3941 -0.0001 -0.6142
  145DOPC    C319908  10.458   9.165   5.383 -0.7143 -0.5153 -0.5780
  145DOPC    HX19909  10.389   9.082   5.408 -0.2909  0.0065  2.8005
  145DOPC    HY19910  10.554   9.163   5.439 -1.7013 -0.4877  1.1978
  145DOPC   O3119911  10.479   9.158   5.230  0.1204 -0.1167  0.1977
  145DOPC   C3119912  10.572   9.240   5.186  0.5472  0.2703 -0.3526
  145DOPC   O3219913  10.647   9.307   5.260 -0.1236  0.2152  0.6472
  145DOPC   C3219914  10.551   9.261   5.039  0.1630 -0.3791 -0.4577
  145DOPC   H2X19915  10.452   9.227   5.003  0.3704 -0.8824 -0.5658
  145DOPC   H2Y19916  10.550   9.371   5.027 -1.4059 -0.4301 -0.9775
  145DOPC   C2319917  10.122   9.561   5.143 -0.7940 -0.3496  0.0897
  145DOPC   H3R19918  10.162   9.649   5.198 -0.8672 -1.2692  1.6787
  145DOPC   H3S19919  10.026   9.589   5.094  0.4674  2.7443 -0.9233
  145DOPC   C2419920  10.217   9.537   5.023  0.1193  0.2282  0.1094
  145DOPC   H4R19921  10.157   9.492   4.940 -0.3467 -0.1852  0.6654
  145DOPC   H4S19922  10.311   9.482   5.043  2.1876  3.7502  0.9800
  145DOPC   C2519923  10.260   9.674   4.973 -0.3320  0.4513 -0.1739
  145DOPC   H5R19924  10.327   9.726   5.045  0.3267  0.3209 -0.6793
  145DOPC   H5S19925  10.164   9.728   4.959 -0.5223  0.1683  0.0301
  145DOPC   C2619926  10.331   9.664   4.843  1.4054 -0.0132 -0.4659
  145DOPC   H6R19927  10.259   9.619   4.771  0.2058  0.5658  0.3263
  145DOPC   H6S19928  10.417   9.600   4.870  0.1376 -1.4677  0.2820
  145DOPC   C2719929  10.388   9.789   4.783  0.6714  0.1736 -0.0380
  145DOPC   H7R19930  10.469   9.816   4.854  0.0787  0.1998  0.6348
  145DOPC   H7S19931  10.312   9.870   4.774  1.3696  0.9312  0.7198
  145DOPC   C2819932  10.443   9.762   4.640 -0.2157 -0.6240  0.6085
  145DOPC   H8R19933  10.359   9.714   4.586 -0.2454  0.9431 -0.8523
  145DOPC   H8S19934  10.529   9.691   4.634 -0.8288 -1.5643  2.3890
  145DOPC   C2919935  10.477   9.899   4.577  0.4543 -0.1319  0.3354
  145DOPC   H9R19936  10.571   9.944   4.613 -0.1955  1.4551  0.1438
  145DOPC  C21019937  10.406   9.967   4.487  0.1112  0.1637 -0.3823
  145DOPC  H10R19938  10.436  10.069   4.457  1.8409 -0.8918 -2.5880
  145DOPC  C21119939  10.282   9.915   4.423  0.0349 -0.0605  0.1870
  145DOPC  H11R19940  10.292   9.810   4.389 -0.8947 -0.6772  1.7209
  145DOPC  H11S19941  10.264   9.979   4.334  0.4002  0.7144  0.6559
  145DOPC  C21219942  10.160   9.925   4.517  0.0005  0.8120 -0.0931
  145DOPC  H12R19943  10.149  10.026   4.563 -1.9185 -0.2661  1.9778
  145DOPC  H12S19944  10.179   9.852   4.598  0.1527  1.1040  0.1368
  145DOPC  C21319945  10.029   9.902   4.443  0.6279 -0.4949 -0.0145
  145DOPC  H13R19946  10.007   9.793   4.447 -0.0995 -0.3315  0.7027
  145DOPC  H13S19947  10.039   9.920   4.333 -1.3575 -2.4978 -0.6037
  145DOPC  C21419948   9.908   9.978   4.491  0.2582  0.1282 -0.4525
  145DOPC  H14R19949   9.919  10.085   4.467  0.2153  0.9309  2.7021
  145DOPC  H14S19950   9.914   9.969   4.602  0.0066  0.7468 -0.3853
  145DOPC  C21519951   9.783   9.918   4.429 -0.1117  0.0684 -0.5490
  145DOPC  H15R19952   9.765   9.810   4.444 -0.6127  0.4079  1.7007
  145DOPC  H15S19953   9.791   9.939   4.320 -0.2414  2.8573 -0.1080
  145DOPC  C21619954   9.658  10.001   4.479  0.4912 -0.0736 -0.2688
  145DOPC  H16R19955   9.660  10.103   4.437  1.0277  0.4609  1.0022
  145DOPC  H16S19956   9.664  10.006   4.590 -2.2501  3.4012 -0.0842
  145DOPC  C21719957   9.526   9.929   4.452 -0.3663  0.5502 -0.1606
  145DOPC  H17R19958   9.443   9.993   4.491 -0.8011 -1.2592  2.1010
  145DOPC  H17S19959   9.526   9.834   4.508  0.6494 -0.0538 -1.1437
  145DOPC  C21819960   9.506   9.896   4.306  0.1481  0.6747 -0.0469
  145DOPC  H18R19961   9.403   9.861   4.282 -0.4835  2.1553  0.3901
  145DOPC  H18S19962   9.585   9.832   4.261 -1.0877 -0.8557 -0.1266
  145DOPC  H18T19963   9.519   9.993   4.255  0.6325 -0.0974 -1.4535
  145DOPC   C3319964  10.672   9.204   4.952  0.7635 -0.4754 -0.1591
  145DOPC   H3X19965  10.657   9.101   4.914 -1.1706 -0.9466  1.7110
  145DOPC   H3Y19966  10.769   9.212   5.005 -1.1911  0.2057  3.6489
  145DOPC   C3419967  10.674   9.294   4.824  0.4223 -0.0391 -0.1598
  145DOPC   H4X19968  10.697   9.400   4.847  1.6335 -0.1238 -0.8806
  145DOPC   H4Y19969  10.577   9.291   4.770 -0.6812  0.3359  1.7216
  145DOPC   C3519970  10.769   9.238   4.724 -0.5790 -1.1986 -0.1916
  145DOPC   H5X19971  10.751   9.129   4.708  0.1693 -1.2741 -0.5881
  145DOPC   H5Y19972  10.873   9.238   4.762 -0.1641 -0.8098 -1.2912
  145DOPC   C3619973  10.780   9.307   4.584 -0.2062 -0.3641 -0.2266
  145DOPC   H6X19974  10.709   9.268   4.508  0.8021  0.7935 -1.8443
  145DOPC   H6Y19975  10.762   9.416   4.598  1.1865  0.0201 -1.1606
  145DOPC   C3719976  10.926   9.285   4.525  0.3798 -0.5117 -0.3580
  145DOPC   H7X19977  11.006   9.322   4.592  0.5909 -1.9953  0.2490
  145DOPC   H7Y19978  10.936   9.174   4.526 -0.4768 -0.6264  1.5350
  145DOPC   C3819979  10.937   9.327   4.378 -0.1872 -0.3410  0.3667
  145DOPC   H8X19980  10.850   9.287   4.322 -1.7662  1.5931  1.3281
  145DOPC   H8Y19981  11.019   9.272   4.328 -1.5953 -0.9036 -1.4431
  145DOPC   C3919982  10.955   9.478   4.363  0.3855 -0.2483 -0.0249
  145DOPC   H9X19983  11.059   9.513   4.372  0.5031 -0.6428  0.2097
  145DOPC  C31019984  10.864   9.568   4.339  0.4176 -0.1237 -0.2710
  145DOPC  H10X19985  10.891   9.674   4.354  0.1967 -0.3938  2.6621
  145DOPC  C31119986  10.718   9.546   4.316  0.2187 -0.0073 -0.0958
  145DOPC  H11X19987  10.661   9.584   4.403 -0.2217  0.9324 -0.7794
  145DOPC  H11Y19988  10.693   9.438   4.315 -0.9641  0.2570 -0.3367
  145DOPC  C31219989  10.675   9.619   4.187  0.8038 -0.5087 -0.2651
  145DOPC  H12X19990  10.591   9.571   4.132  1.0012  0.2168 -1.2284
  145DOPC  H12Y19991  10.758   9.608   4.114  1.3988 -0.6403  0.4211
  145DOPC  C31319992  10.642   9.760   4.236 -0.2247 -0.1970  0.2801
  145DOPC  H13X19993  10.548   9.750   4.294 -0.4484 -4.5089 -0.4922
  145DOPC  H13Y19994  10.719   9.802   4.304  0.6715  0.3973 -1.0437
  145DOPC  C31419995  10.617   9.860   4.121  0.2151 -0.0164  0.1497
  145DOPC  H14X19996  10.696   9.856   4.043  0.0516 -0.5549  0.0080
  145DOPC  H14Y19997  10.530   9.824   4.061  0.7683  0.8034 -1.2136
  145DOPC  C31519998  10.581  10.005   4.158  0.0900 -0.1127  0.5378
  145DOPC  H15X19999  10.482  10.008   4.209 -0.5951  0.3724 -0.7779
  145DOPC  H15Y20000  10.564  10.068   4.069  0.2242 -0.3044  0.3771
  145DOPC  C31620001  10.677  10.072   4.256  0.1146 -0.0220  0.6805
  145DOPC  H16X20002  10.630  10.165   4.296  3.3204  1.6629  0.8035
  145DOPC  H16Y20003  10.688  10.016   4.351  0.2253 -0.3374  0.4814
  145DOPC  C31720004  10.819  10.096   4.200  0.1416  0.3976 -0.5177
  145DOPC  H17X20005  10.869  10.162   4.274 -1.0367  0.9749 -0.2021
  145DOPC  H17Y20006  10.871   9.999   4.214  1.2686  1.3232  2.6396
  145DOPC  C31820007  10.827  10.158   4.063 -0.1614 -0.5056  0.5022
  145DOPC  H18X20008  10.931  10.195   4.045 -1.1531  1.8433 -0.8329
  145DOPC  H18Y20009  10.804  10.084   3.983 -0.3573 -0.4710  0.5258
  145DOPC  H18Z20010  10.768  10.250   4.042  0.5049 -0.4970 -1.6522
  146DOPC     N20011   5.589   4.255   6.322 -0.1925  0.1253  0.4301
  146DOPC   C1220012   5.727   4.323   6.312 -0.4507 -0.8018 -0.1982
  146DOPC  H12A20013   5.779   4.272   6.231  2.1058  1.9753 -0.4835
  146DOPC  H12B20014   5.778   4.313   6.406 -2.2847 -0.1541  0.9037
  146DOPC   C1320015   5.516   4.332   6.432 -0.6017  0.4579 -0.1560
  146DOPC  H13A20016   5.431   4.276   6.468 -0.1556  0.1962  0.5151
  146DOPC  H13B20017   5.590   4.346   6.509 -1.0228 -0.7085  0.4964
  146DOPC  H13C20018   5.483   4.425   6.389 -1.1500 -0.4560 -1.7914
  146DOPC   C1420019   5.605   4.119   6.373  0.1496 -0.7592 -0.6204
  146DOPC  H14A20020   5.507   4.076   6.390 -0.7890  1.6872  0.7737
  146DOPC  H14B20021   5.662   4.058   6.305  0.1316 -0.7880 -0.6093
  146DOPC  H14C20022   5.646   4.115   6.473 -0.9322 -0.5587 -0.1572
  146DOPC   C1520023   5.513   4.251   6.191  0.0077  0.0696 -0.6071
  146DOPC  H15A20024   5.527   4.347   6.144  0.7117  0.0545 -0.4447
  146DOPC  H15B20025   5.409   4.224   6.201  0.9174 -3.7176  0.3471
  146DOPC  H15C20026   5.548   4.179   6.118  0.3896 -1.0286  0.6324
  146DOPC   C1120027   5.729   4.471   6.269  0.2894 -0.0934 -0.0689
  146DOPC  H11A20028   5.658   4.517   6.341 -0.6925 -1.7271  0.0465
  146DOPC  H11B20029   5.829   4.518   6.287  0.9071 -1.4463  0.1125
  146DOPC     P20030   5.793   4.447   6.025 -0.1363  0.4347 -0.0550
  146DOPC   O1320031   5.828   4.307   6.045 -0.0516  0.1112  0.7530
  146DOPC   O1420032   5.893   4.556   6.014  0.5848 -0.1678 -0.0673
  146DOPC   O1220033   5.686   4.488   6.133 -0.2753 -0.1301 -0.0378
  146DOPC   O1120034   5.713   4.458   5.886  0.2515  0.3121 -0.0260
  146DOPC    C120035   5.644   4.578   5.847  0.1358 -0.3088  0.5653
  146DOPC    HA20036   5.676   4.661   5.914 -2.7305  0.9931  0.4429
  146DOPC    HB20037   5.538   4.560   5.873 -0.1363  0.6968  0.1777
  146DOPC    C220038   5.670   4.614   5.700 -0.4604  0.4962 -0.7248
  146DOPC    HS20039   5.595   4.690   5.670 -0.7676  0.5051  0.0275
  146DOPC   O2120040   5.655   4.504   5.614 -0.0400 -0.0382  0.1996
  146DOPC   C2120041   5.533   4.470   5.577 -0.1634 -0.8776 -0.3079
  146DOPC   O2220042   5.437   4.546   5.591 -0.2281  0.3931  0.0525
  146DOPC   C2220043   5.530   4.330   5.516  0.2127  0.5526  0.2284
  146DOPC   H2R20044   5.426   4.296   5.498  1.5729 -2.5220 -3.5897
  146DOPC   H2S20045   5.587   4.259   5.580  1.3776  2.4605  1.3838
  146DOPC    C320046   5.815   4.660   5.695 -0.1779  0.0689 -0.7199
  146DOPC    HX20047   5.876   4.577   5.737 -0.8616 -0.0445  0.0741
  146DOPC    HY20048   5.817   4.746   5.765  0.9921 -0.3903 -0.1520
  146DOPC   O3120049   5.848   4.700   5.556  0.1387  0.4976 -0.3460
  146DOPC   C3120050   5.808   4.817   5.515  0.0076  0.1476  0.4881
  146DOPC   O3220051   5.755   4.907   5.580  0.6963  0.2153 -0.0992
  146DOPC   C3220052   5.850   4.844   5.375 -0.4041 -0.1408 -0.3008
  146DOPC   H2X20053   5.819   4.950   5.367  0.1528  0.4190  3.2485
  146DOPC   H2Y20054   5.961   4.840   5.364 -0.3788 -0.0185 -0.0799
  146DOPC   C2320055   5.597   4.341   5.373  0.6466 -0.3176  0.2274
  146DOPC   H3R20056   5.580   4.236   5.341  2.0179  0.1061 -2.1217
  146DOPC   H3S20057   5.700   4.379   5.359  1.5110 -2.4800  0.3804
  146DOPC   C2420058   5.504   4.425   5.289 -0.6727  0.5265  1.2118
  146DOPC   H4R20059   5.520   4.531   5.316 -0.5512  0.2878  2.0948
  146DOPC   H4S20060   5.394   4.411   5.298 -1.0693  1.3262 -1.3500
  146DOPC   C2520061   5.542   4.387   5.148  0.1452  0.5383 -0.6989
  146DOPC   H5R20062   5.513   4.281   5.141 -1.7077  0.8800  0.9581
  146DOPC   H5S20063   5.648   4.409   5.123  0.0616  0.1479 -1.4167
  146DOPC   C2620064   5.467   4.455   5.025 -0.6041  0.7444 -0.5633
  146DOPC   H6R20065   5.465   4.565   5.031  3.3619  1.0077 -1.4610
  146DOPC   H6S20066   5.362   4.418   5.031 -0.3305 -0.2912 -1.5992
  146DOPC   C2720067   5.537   4.428   4.893 -0.0249 -0.0476  0.3518
  146DOPC   H7R20068   5.539   4.319   4.871 -0.9115 -0.0071 -0.0015
  146DOPC   H7S20069   5.639   4.471   4.888 -0.4821  0.9930 -3.7875
  146DOPC   C2820070   5.469   4.500   4.769 -0.0465  0.5299 -0.7486
  146DOPC   H8R20071   5.540   4.479   4.686  2.9655  1.2276  1.4556
  146DOPC   H8S20072   5.474   4.609   4.791 -3.3700  0.6156  0.0149
  146DOPC   C2920073   5.329   4.459   4.729 -0.2460  0.1280 -0.2391
  146DOPC   H9R20074   5.326   4.351   4.710  1.4316  0.2363 -1.3055
  146DOPC  C21020075   5.220   4.534   4.702  0.2377 -0.1887  1.0704
  146DOPC  H10R20076   5.128   4.490   4.661  0.5220  0.8755 -0.7854
  146DOPC  C21120077   5.219   4.683   4.703  0.2447 -1.0192  0.2089
  146DOPC  H11R20078   5.185   4.729   4.608  0.0120  1.6692  1.4984
  146DOPC  H11S20079   5.322   4.725   4.701 -0.1289  0.0248 -2.6549
  146DOPC  C21220080   5.142   4.755   4.819 -0.2387 -0.2570 -0.3011
  146DOPC  H12R20081   5.037   4.774   4.787 -0.2313  2.2040  0.9096
  146DOPC  H12S20082   5.172   4.861   4.837 -1.4121 -0.3208  2.5687
  146DOPC  C21320083   5.150   4.695   4.960 -0.6489 -0.6867 -0.5167
  146DOPC  H13R20084   5.253   4.659   4.985 -1.0243  0.2621  2.9160
  146DOPC  H13S20085   5.088   4.604   4.972  0.5468 -1.2981  1.5407
  146DOPC  C21420086   5.098   4.786   5.077 -0.3708  0.4940 -0.3831
  146DOPC  H14R20087   4.994   4.822   5.061 -0.1136  0.1231 -3.4836
  146DOPC  H14S20088   5.161   4.878   5.074  1.8024 -0.9304 -0.4093
  146DOPC  C21520089   5.121   4.712   5.213  0.2323 -0.1294  0.4114
  146DOPC  H15R20090   5.219   4.662   5.195  0.4836  0.6582 -0.4932
  146DOPC  H15S20091   5.044   4.632   5.220  1.2841 -1.2527 -0.4604
  146DOPC  C21620092   5.133   4.798   5.333  0.3583  0.6804 -0.1945
  146DOPC  H16R20093   5.133   4.733   5.423  0.8501  0.3140 -0.4538
  146DOPC  H16S20094   5.044   4.864   5.334  0.9361  1.5537 -1.8327
  146DOPC  C21720095   5.250   4.888   5.338  0.4837  0.4914 -0.7846
  146DOPC  H17R20096   5.233   4.961   5.420  0.7231  0.8464 -1.0466
  146DOPC  H17S20097   5.261   4.949   5.246  0.6209  0.1282 -1.0127
  146DOPC  C21820098   5.378   4.816   5.373  0.7579  0.1494 -0.0199
  146DOPC  H18R20099   5.369   4.710   5.406 -0.9876 -0.7856 -3.0588
  146DOPC  H18S20100   5.449   4.876   5.433  0.2831 -1.6010  2.4765
  146DOPC  H18T20101   5.427   4.806   5.274  3.1092 -1.0302  1.1962
  146DOPC   C3320102   5.767   4.764   5.274  0.4890 -0.1710  0.4213
  146DOPC   H3X20103   5.660   4.766   5.302  0.6096 -0.8261  0.9797
  146DOPC   H3Y20104   5.799   4.658   5.279 -2.1296 -1.0932 -0.7962
  146DOPC   C3420105   5.789   4.825   5.128 -0.4204  0.5635 -0.3996
  146DOPC   H4X20106   5.900   4.830   5.130 -0.3533 -0.6558  0.1655
  146DOPC   H4Y20107   5.757   4.931   5.133  1.3539  1.0807  2.5846
  146DOPC   C3520108   5.736   4.741   5.009 -0.2076  0.3704 -0.0815
  146DOPC   H5X20109   5.626   4.736   5.021 -0.1564  0.2061  0.3260
  146DOPC   H5Y20110   5.772   4.636   5.019  0.2678  0.5422  0.0401
  146DOPC   C3620111   5.768   4.787   4.868  0.9464 -0.7347 -1.2735
  146DOPC   H6X20112   5.726   4.719   4.791 -3.5752 -0.5438  0.7410
  146DOPC   H6Y20113   5.717   4.883   4.846  0.4028 -0.4828  0.8476
  146DOPC   C3720114   5.914   4.825   4.848  0.0280  0.2650 -0.8249
  146DOPC   H7X20115   5.920   4.918   4.786  0.2718  0.7597 -0.0684
  146DOPC   H7Y20116   5.972   4.850   4.939 -3.3191  0.6057  1.3705
  146DOPC   C3820117   5.989   4.716   4.758  0.3191 -0.2027  0.0338
  146DOPC   H8X20118   5.931   4.696   4.665 -3.9877  3.1311  1.6948
  146DOPC   H8Y20119   5.972   4.621   4.813  2.2621 -0.7402 -0.2095
  146DOPC   C3920120   6.136   4.749   4.726 -0.3291  0.0306 -0.5528
  146DOPC   H9X20121   6.199   4.775   4.812 -0.8725  2.9136 -0.9097
  146DOPC  C31020122   6.189   4.773   4.606  0.6273  0.7617  0.5090
  146DOPC  H10X20123   6.297   4.788   4.593  1.1211 -2.8694 -0.6675
  146DOPC  C31120124   6.110   4.753   4.480  0.1473  0.1492 -0.4674
  146DOPC  H11X20125   6.006   4.788   4.493 -0.6258 -2.5399  1.7484
  146DOPC  H11Y20126   6.113   4.644   4.460  0.7766 -0.3384  1.9018
  146DOPC  C31220127   6.169   4.839   4.365 -0.2332  0.8461  0.4778
  146DOPC  H12X20128   6.166   4.780   4.271  0.4464  0.6806  0.5593
  146DOPC  H12Y20129   6.278   4.856   4.367  0.1734 -1.3216 -0.3054
  146DOPC  C31320130   6.106   4.982   4.360  0.3447  0.1277 -0.1811
  146DOPC  H13X20131   5.996   4.968   4.364  0.1860 -0.0348 -3.0289
  146DOPC  H13Y20132   6.130   5.049   4.446 -0.1817  0.9565 -0.6662
  146DOPC  C31420133   6.120   5.056   4.225 -0.1271 -0.2640 -0.2901
  146DOPC  H14X20134   6.220   5.056   4.177  0.1120  0.8922  0.1686
  146DOPC  H14Y20135   6.042   5.015   4.157 -0.6631  0.7458 -0.3025
  146DOPC  C31520136   6.079   5.205   4.230 -0.0579 -0.1143 -0.0026
  146DOPC  H15X20137   6.147   5.259   4.299  1.4726 -0.6502 -1.0263
  146DOPC  H15Y20138   5.973   5.222   4.259  0.1014  1.4827 -0.2422
  146DOPC  C31620139   6.094   5.274   4.092  0.6947 -0.3107 -0.2603
  146DOPC  H16X20140   6.183   5.242   4.034  1.3690  0.8866  0.0784
  146DOPC  H16Y20141   6.010   5.256   4.022  0.0441  0.2216  0.3764
  146DOPC  C31720142   6.091   5.429   4.113  0.3434  0.3814 -1.1755
  146DOPC  H17X20143   5.997   5.470   4.155 -0.9807 -0.9026 -2.7678
  146DOPC  H17Y20144   6.182   5.454   4.173  0.6065 -0.0166 -1.4016
  146DOPC  C31820145   6.103   5.505   3.978 -0.4905 -0.4217  0.3135
  146DOPC  H18X20146   6.164   5.445   3.907 -0.0801  0.9675 -0.5581
  146DOPC  H18Y20147   6.004   5.520   3.930  0.1950  0.8868 -0.7693
  146DOPC  H18Z20148   6.152   5.605   3.982 -0.0481 -0.6705  1.7567
  147DOPC     N20149   2.821   0.400   6.533  0.1918  0.0390  0.2875
  147DOPC   C1220150   2.798   0.324   6.397 -0.0575  0.3988 -0.0479
  147DOPC  H12A20151   2.693   0.303   6.383  0.1205  1.2114 -3.1017
  147DOPC  H12B20152   2.835   0.223   6.410 -2.2110 -0.8296 -2.5520
  147DOPC   C1320153   2.964   0.366   6.573 -0.1400  0.0452  0.3108
  147DOPC  H13A20154   2.994   0.411   6.666  1.9641 -0.7632  0.0747
  147DOPC  H13B20155   2.963   0.259   6.588 -2.3777  0.0836  0.7340
  147DOPC  H13C20156   3.030   0.398   6.493 -2.2617  0.1913 -1.5030
  147DOPC   C1420157   2.722   0.338   6.623  1.0731  0.3837 -0.2762
  147DOPC  H14A20158   2.721   0.385   6.720 -2.2760  0.8596 -0.3935
  147DOPC  H14B20159   2.620   0.330   6.586  0.9671 -0.8171  0.2367
  147DOPC  H14C20160   2.746   0.233   6.630  0.0746 -0.1302 -3.0656
  147DOPC   C1520161   2.803   0.545   6.524 -0.1270 -0.0085 -0.0139
  147DOPC  H15A20162   2.872   0.580   6.449  1.9989 -1.0630  1.3740
  147DOPC  H15B20163   2.812   0.592   6.621 -0.7612  0.6606 -0.2653
  147DOPC  H15C20164   2.710   0.572   6.474  0.2989 -0.6642 -1.2001
  147DOPC   C1120165   2.862   0.382   6.269  0.5990 -0.5227 -0.0779
  147DOPC  H11A20166   2.834   0.326   6.177  0.1914 -0.5027  0.0312
  147DOPC  H11B20167   2.814   0.479   6.243  2.5368  0.1538 -1.3448
  147DOPC     P20168   3.109   0.295   6.256  0.1618  0.1819 -0.0192
  147DOPC   O1320169   3.143   0.221   6.383 -0.7740  0.0385 -0.5994
  147DOPC   O1420170   3.215   0.357   6.173 -0.7104 -0.2769  0.7023
  147DOPC   O1220171   2.998   0.403   6.284  0.2271 -0.3689 -0.0550
  147DOPC   O1120172   3.034   0.191   6.168  1.0171 -0.0844  0.5160
  147DOPC    C120173   3.081   0.060   6.141 -0.6523 -0.0794 -0.6112
  147DOPC    HA20174   2.994  -0.001   6.107 -1.9895  0.9519  0.7825
  147DOPC    HB20175   3.116   0.014   6.236  1.9692  0.7774 -1.0884
  147DOPC    C220176   3.197   0.058   6.035  0.3142 -0.2844  0.1568
  147DOPC    HS20177   3.276   0.129   6.068  0.7719 -0.2273 -1.0290
  147DOPC   O2120178   3.146   0.087   5.904  0.2182 -0.2770 -0.1942
  147DOPC   C2120179   3.237   0.147   5.825  0.7632 -0.3669  0.4698
  147DOPC   O2220180   3.346   0.180   5.858 -0.0406 -0.2567  0.2816
  147DOPC   C2220181   3.174   0.171   5.681 -0.4946  0.6055  0.0280
  147DOPC   H2R20182   3.233   0.249   5.630  4.4253 -1.0852  2.5201
  147DOPC   H2S20183   3.070   0.209   5.693 -0.0591  1.9936 -0.4983
  147DOPC    C320184   3.270  -0.070   6.029  0.4171 -0.2045 -0.0681
  147DOPC    HX20185   3.337  -0.067   6.117  1.3380 -1.8957 -0.6712
  147DOPC    HY20186   3.342  -0.075   5.944 -0.0818 -3.0056 -0.4224
  147DOPC   O3120187   3.183  -0.186   6.020 -0.2633  0.1856 -0.5302
  147DOPC   C3120188   3.181  -0.260   5.903 -0.8032 -0.5689 -0.0847
  147DOPC   O3220189   3.243  -0.222   5.801  0.6630  0.5268 -0.0224
  147DOPC   C3220190   3.091  -0.386   5.916 -0.0784 -0.4702  0.5224
  147DOPC   H2X20191   3.152  -0.470   5.956  0.7278 -0.6320 -0.9792
  147DOPC   H2Y20192   3.011  -0.367   5.991 -0.3753  1.2198 -0.1842
  147DOPC   C2320193   3.155   0.045   5.596 -0.2787 -0.1900 -0.5845
  147DOPC   H3R20194   3.111   0.082   5.501 -0.8009 -0.5848 -0.4986
  147DOPC   H3S20195   3.087  -0.020   5.654  2.2393 -0.2632  2.6202
  147DOPC   C2420196   3.283  -0.028   5.563 -0.1702  0.6359  0.6593
  147DOPC   H4R20197   3.337  -0.061   5.654  0.1011 -0.8061  0.0044
  147DOPC   H4S20198   3.356   0.029   5.502  1.7682 -2.1816  0.1748
  147DOPC   C2520199   3.256  -0.168   5.499 -0.4143  0.2545 -0.0474
  147DOPC   H5R20200   3.201  -0.234   5.569  1.3654 -1.2165  0.0334
  147DOPC   H5S20201   3.355  -0.214   5.476  0.0979 -0.0135  2.4032
  147DOPC   C2620202   3.175  -0.163   5.374  0.3514 -0.6234  0.2511
  147DOPC   H6R20203   3.221  -0.090   5.304  1.1271  0.3414  1.7111
  147DOPC   H6S20204   3.071  -0.133   5.400  0.2513 -0.4292 -0.3504
  147DOPC   C2720205   3.176  -0.298   5.294 -0.5407 -0.2067  0.3322
  147DOPC   H7R20206   3.267  -0.358   5.316 -1.0902 -1.4059 -0.5365
  147DOPC   H7S20207   3.175  -0.262   5.189 -0.9166 -1.3825 -0.0870
  147DOPC   C2820208   3.049  -0.387   5.327 -0.5820  0.1941  0.0918
  147DOPC   H8R20209   3.059  -0.412   5.434 -0.0253  0.4113  0.0940
  147DOPC   H8S20210   3.053  -0.484   5.274  0.5654  0.0427  0.4277
  147DOPC   C2920211   2.909  -0.336   5.304  0.0111 -0.5344 -0.1017
  147DOPC   H9R20212   2.870  -0.302   5.401 -0.1058 -1.3970  0.1620
  147DOPC  C21020213   2.832  -0.335   5.193 -0.1259 -0.2507 -0.6541
  147DOPC  H10R20214   2.725  -0.310   5.203  0.7833  3.6183  1.3892
  147DOPC  C21120215   2.877  -0.388   5.062  0.9717  0.2654  0.3551
  147DOPC  H11R20216   2.830  -0.488   5.053 -0.7141  1.0026  0.5569
  147DOPC  H11S20217   2.987  -0.393   5.050  1.0734 -0.1081  1.3085
  147DOPC  C21220218   2.830  -0.315   4.932 -0.2410 -0.9092  0.7156
  147DOPC  H12R20219   2.867  -0.361   4.838 -1.4713  2.3380 -1.5463
  147DOPC  H12S20220   2.843  -0.204   4.933 -0.6555 -0.8612  0.9172
  147DOPC  C21320221   2.677  -0.324   4.915  0.1280 -0.0140  0.4013
  147DOPC  H13R20222   2.657  -0.251   4.834 -0.9623  1.0352  1.5661
  147DOPC  H13S20223   2.634  -0.275   5.005  1.8179 -0.8156  1.7278
  147DOPC  C21420224   2.616  -0.458   4.904 -0.5862 -0.5247  0.6732
  147DOPC  H14R20225   2.507  -0.442   4.888 -0.1068  1.2134 -1.4055
  147DOPC  H14S20226   2.629  -0.515   4.999 -0.0211 -1.9966 -0.2506
  147DOPC  C21520227   2.655  -0.544   4.783 -0.6539  0.2843  0.1165
  147DOPC  H15R20228   2.764  -0.535   4.763 -0.7152 -1.0931 -0.9828
  147DOPC  H15S20229   2.604  -0.503   4.694 -1.6383 -2.2402 -0.5625
  147DOPC  C21620230   2.622  -0.695   4.802  0.0536 -0.5738  0.4257
  147DOPC  H16R20231   2.515  -0.716   4.822  0.3022 -1.2077  1.1491
  147DOPC  H16S20232   2.683  -0.726   4.890  0.1044  2.7371  1.7211
  147DOPC  C21720233   2.661  -0.787   4.686 -0.0015 -0.0311 -0.0985
  147DOPC  H17R20234   2.766  -0.762   4.657  1.3346 -0.3554  3.9166
  147DOPC  H17S20235   2.587  -0.768   4.605 -1.8203  0.1067  1.5310
  147DOPC  C21820236   2.661  -0.936   4.733  0.1519  0.6108  0.2510
  147DOPC  H18R20237   2.756  -0.952   4.787  1.0873 -0.3666 -1.5754
  147DOPC  H18S20238   2.647  -1.006   4.648  0.1100  0.4958  0.3526
  147DOPC  H18T20239   2.586  -0.952   4.813  0.2449  0.5145  0.3178
  147DOPC   C3320240   3.026  -0.423   5.782  0.2971  0.1502 -0.0106
  147DOPC   H3X20241   3.109  -0.429   5.709  0.3979  2.7522 -0.1952
  147DOPC   H3Y20242   2.960  -0.342   5.744  1.5252  0.3141 -1.8717
  147DOPC   C3420243   2.928  -0.547   5.799 -0.3898  0.2498  1.0565
  147DOPC   H4X20244   2.863  -0.541   5.889 -0.3417 -0.3042  1.1341
  147DOPC   H4Y20245   2.992  -0.638   5.808 -0.2916  0.1667 -0.2583
  147DOPC   C3520246   2.848  -0.565   5.668 -0.3679 -0.1462 -0.7250
  147DOPC   H5X20247   2.927  -0.577   5.591  1.0273  0.4134  0.5687
  147DOPC   H5Y20248   2.788  -0.478   5.632  2.8573  3.0971  1.0934
  147DOPC   C3620249   2.754  -0.689   5.667 -0.4546 -0.4323 -0.0172
  147DOPC   H6X20250   2.735  -0.712   5.560  2.6023  2.1431 -1.2645
  147DOPC   H6Y20251   2.815  -0.769   5.713  0.4612  1.4432  2.2024
  147DOPC   C3720252   2.628  -0.658   5.747  0.7917  0.7044  0.6292
  147DOPC   H7X20253   2.658  -0.640   5.852 -2.0304  0.2957  1.5680
  147DOPC   H7Y20254   2.578  -0.574   5.695  0.5264 -0.0497 -0.3863
  147DOPC   C3820255   2.523  -0.777   5.734 -0.0154 -0.9490 -0.0576
  147DOPC   H8X20256   2.574  -0.869   5.770  0.5559 -0.4086  0.5574
  147DOPC   H8Y20257   2.503  -0.795   5.626  0.4791  0.0273 -0.3207
  147DOPC   C3920258   2.396  -0.756   5.820 -0.3193 -0.2255  0.0165
  147DOPC   H9X20259   2.417  -0.721   5.922 -3.3139 -0.6213  0.8590
  147DOPC  C31020260   2.271  -0.769   5.781  0.1252  0.4742 -0.1901
  147DOPC  H10X20261   2.186  -0.746   5.847 -2.0282  1.5994 -3.1277
  147DOPC  C31120262   2.227  -0.817   5.640 -0.6721 -0.1671 -0.3721
  147DOPC  H11X20263   2.152  -0.898   5.648  0.9929 -1.9507 -1.8104
  147DOPC  H11Y20264   2.297  -0.866   5.569  1.5709 -0.4208  1.8977
  147DOPC  C31220265   2.147  -0.699   5.570 -0.9290  0.4502 -0.1326
  147DOPC  H12X20266   2.228  -0.628   5.544 -1.0314  0.9738  0.9536
  147DOPC  H12Y20267   2.086  -0.640   5.641 -0.6660  1.6858 -0.8961
  147DOPC  C31320268   2.059  -0.752   5.456  0.1328  0.0600 -0.1430
  147DOPC  H13X20269   2.122  -0.818   5.391  1.0638 -0.3876  1.1705
  147DOPC  H13Y20270   1.978  -0.810   5.505  0.1628 -0.5106 -0.7428
  147DOPC  C31420271   1.996  -0.640   5.378 -0.0906  0.2899 -0.2755
  147DOPC  H14X20272   1.931  -0.590   5.454 -1.4300 -2.7129  0.7018
  147DOPC  H14Y20273   2.077  -0.569   5.354 -0.7696  1.4842  0.8243
  147DOPC  C31520274   1.911  -0.667   5.256 -0.1714 -0.0734  1.0821
  147DOPC  H15X20275   1.830  -0.741   5.272  0.1337 -0.6918 -0.1274
  147DOPC  H15Y20276   1.977  -0.717   5.182 -1.2517  0.2446 -0.1301
  147DOPC  C31620277   1.849  -0.538   5.195 -0.2099 -0.6470  0.3153
  147DOPC  H16X20278   1.763  -0.512   5.261 -0.5987  1.7730 -1.0418
  147DOPC  H16Y20279   1.925  -0.458   5.185 -0.6257 -0.4730 -2.1531
  147DOPC  C31720280   1.781  -0.566   5.065 -0.2036 -0.3097 -0.1177
  147DOPC  H17X20281   1.865  -0.596   4.999  0.6792 -1.0654  1.2806
  147DOPC  H17Y20282   1.706  -0.646   5.079 -0.8514  0.0861 -1.2416
  147DOPC  C31820283   1.704  -0.446   5.003 -0.1312  0.4620  0.7821
  147DOPC  H18X20284   1.610  -0.413   5.052 -2.0854  0.2975 -2.5279
  147DOPC  H18Y20285   1.755  -0.348   5.005  0.8045  0.1436 -2.0848
  147DOPC  H18Z20286   1.684  -0.458   4.894 -0.8998 -0.3648  1.0016
  148DOPC     N20287   7.210   6.651   6.152 -0.1883  0.6937  0.5413
  148DOPC   C1220288   7.085   6.696   6.064  0.1446 -0.0188  0.3115
  148DOPC  H12A20289   7.116   6.696   5.960 -0.8555 -2.1303 -0.0391
  148DOPC  H12B20290   7.064   6.801   6.076 -1.0929 -0.1306 -0.6829
  148DOPC   C1320291   7.236   6.506   6.132  0.8045  0.7858 -0.3598
  148DOPC  H13A20292   7.139   6.460   6.144  0.6315  1.5464  1.5830
  148DOPC  H13B20293   7.270   6.472   6.035 -0.3361 -1.4006 -0.0469
  148DOPC  H13C20294   7.295   6.466   6.213 -0.4032  3.7895  2.2109
  148DOPC   C1420295   7.171   6.674   6.296 -0.7211  0.2734  0.1524
  148DOPC  H14A20296   7.120   6.582   6.320  1.3652 -0.9401  0.1559
  148DOPC  H14B20297   7.267   6.677   6.345 -0.2161  1.1394 -0.8406
  148DOPC  H14C20298   7.124   6.771   6.306  0.5383  0.8483  0.6529
  148DOPC   C1520299   7.336   6.726   6.109 -0.9698 -0.0380 -0.4543
  148DOPC  H15A20300   7.338   6.833   6.122 -0.2001 -0.3824  3.4133
  148DOPC  H15B20301   7.364   6.704   6.007 -1.2374 -1.3892 -0.2619
  148DOPC  H15C20302   7.420   6.695   6.170 -0.3038 -1.5129 -2.0424
  148DOPC   C1120303   6.953   6.619   6.084  0.6777  0.2134  0.0928
  148DOPC  H11A20304   6.902   6.628   6.182 -2.2667 -0.6783 -1.2324
  148DOPC  H11B20305   6.879   6.678   6.025 -2.5683 -1.7359  1.8935
  148DOPC     P20306   6.844   6.399   5.984 -0.1114 -0.2681  0.2326
  148DOPC   O1320307   6.776   6.488   5.890  0.1451  0.8495  0.1477
  148DOPC   O1420308   6.767   6.353   6.101 -0.3621  0.3565 -0.5512
  148DOPC   O1220309   6.964   6.478   6.044 -0.1812 -0.1776 -0.3470
  148DOPC   O1120310   6.906   6.281   5.903  0.1537  0.1737 -0.1861
  148DOPC    C120311   7.025   6.327   5.821 -0.5818 -0.6874 -0.1246
  148DOPC    HA20312   7.059   6.236   5.767  0.7813 -1.2658  1.6207
  148DOPC    HB20313   7.113   6.360   5.879  0.3316 -1.8356 -0.7967
  148DOPC    C220314   6.997   6.437   5.714 -0.0525  0.5118 -0.0938
  148DOPC    HS20315   6.953   6.528   5.761 -1.6588 -0.6019  0.6562
  148DOPC   O2120316   6.907   6.374   5.622 -0.4153 -0.1408 -0.0483
  148DOPC   C2120317   6.850   6.466   5.543  0.3300 -0.3176  0.1757
  148DOPC   O2220318   6.842   6.587   5.570  0.2356  0.5962 -0.0871
  148DOPC   C2220319   6.794   6.391   5.416  0.0937 -0.8735 -0.3371
  148DOPC   H2R20320   6.686   6.368   5.429 -0.3617  0.0708 -2.1792
  148DOPC   H2S20321   6.852   6.299   5.395  1.7257 -0.2103  1.0086
  148DOPC    C320322   7.135   6.471   5.649  0.0215  0.3275 -0.0417
  148DOPC    HX20323   7.170   6.373   5.610 -0.1105  0.0980  0.4020
  148DOPC    HY20324   7.208   6.501   5.727 -0.0942 -1.1968  0.6889
  148DOPC   O3120325   7.129   6.573   5.553  0.2437 -0.2050  0.5088
  148DOPC   C3120326   7.124   6.700   5.601 -0.4982  0.3229 -0.3219
  148DOPC   O3220327   7.139   6.733   5.717  0.1593  0.1081 -0.3094
  148DOPC   C3220328   7.084   6.782   5.481  0.0300 -0.3681 -0.2839
  148DOPC   H2X20329   7.164   6.764   5.406  0.4733 -0.8542  0.2910
  148DOPC   H2Y20330   6.996   6.726   5.443  2.2331 -2.9401 -1.9328
  148DOPC   C2320331   6.789   6.488   5.299 -0.0979  0.3156  0.4531
  148DOPC   H3R20332   6.889   6.515   5.259  0.4821  0.2603  1.8135
  148DOPC   H3S20333   6.723   6.576   5.317 -0.3274  0.4438 -0.8432
  148DOPC   C2420334   6.700   6.418   5.191 -0.3520 -0.5076 -0.2047
  148DOPC   H4R20335   6.597   6.421   5.231  0.3323  1.4532  1.5963
  148DOPC   H4S20336   6.728   6.313   5.167 -0.8718 -0.4473 -1.1489
  148DOPC   C2520337   6.713   6.489   5.049 -0.4955  0.4542  0.0300
  148DOPC   H5R20338   6.673   6.423   4.969 -0.9438  0.9711 -0.1821
  148DOPC   H5S20339   6.820   6.500   5.023 -0.6408  0.4826 -0.5649
  148DOPC   C2620340   6.634   6.618   5.029  0.0291  0.0109 -0.7436
  148DOPC   H6R20341   6.680   6.708   5.074 -1.1722 -0.2489  1.1178
  148DOPC   H6S20342   6.533   6.608   5.074  0.1811  0.1756 -0.3638
  148DOPC   C2720343   6.614   6.669   4.885 -0.8982 -0.5093  0.8293
  148DOPC   H7R20344   6.705   6.655   4.823 -0.6892 -1.8200  1.3973
  148DOPC   H7S20345   6.588   6.775   4.904 -2.0016 -0.8140  1.0992
  148DOPC   C2820346   6.502   6.580   4.816 -0.2077 -0.0971  0.1832
  148DOPC   H8R20347   6.430   6.547   4.894 -0.4893 -1.2975 -0.5667
  148DOPC   H8S20348   6.559   6.486   4.800 -1.1060 -0.7304  0.5909
  148DOPC   C2920349   6.453   6.659   4.702  0.5256 -0.3504  0.0087
  148DOPC   H9R20350   6.506   6.651   4.606 -0.5637  3.2460 -1.0369
  148DOPC  C21020351   6.338   6.736   4.700  0.1489 -1.4783  0.3432
  148DOPC  H10R20352   6.316   6.780   4.602  2.7529 -0.3405  0.2006
  148DOPC  C21120353   6.247   6.767   4.810 -0.4011  0.3642  1.1927
  148DOPC  H11R20354   6.261   6.873   4.838  2.3499  0.6756 -0.8829
  148DOPC  H11S20355   6.280   6.710   4.899 -0.6646 -0.3678  0.8318
  148DOPC  C21220356   6.100   6.723   4.786  0.3231 -0.4612  0.4749
  148DOPC  H12R20357   6.060   6.761   4.689 -0.7345 -0.6954  0.8089
  148DOPC  H12S20358   6.031   6.761   4.864  0.0329  0.9579 -0.4356
  148DOPC  C21320359   6.082   6.575   4.776 -0.0103  0.1382  0.9348
  148DOPC  H13R20360   6.127   6.533   4.868  1.0080 -1.3967 -0.2031
  148DOPC  H13S20361   6.133   6.519   4.694 -0.3731  0.2957  0.6007
  148DOPC  C21420362   5.937   6.532   4.783 -0.1514 -0.2848 -0.5598
  148DOPC  H14R20363   5.903   6.570   4.881 -0.0483  2.3242 -1.4536
  148DOPC  H14S20364   5.912   6.424   4.773 -1.8853  0.1454 -1.3275
  148DOPC  C21520365   5.837   6.589   4.676 -0.3987 -0.2555 -0.1318
  148DOPC  H15R20366   5.867   6.558   4.573  1.8632  0.3448  0.3003
  148DOPC  H15S20367   5.841   6.700   4.677 -0.9721 -0.2301  0.4440
  148DOPC  C21620368   5.684   6.550   4.697  0.4686 -1.0464  0.5262
  148DOPC  H16R20369   5.650   6.587   4.796  1.5480  0.9170  0.2060
  148DOPC  H16S20370   5.654   6.444   4.685 -0.6142 -1.4706  5.2479
  148DOPC  C21720371   5.592   6.626   4.596  0.1387 -0.1533 -0.4122
  148DOPC  H17R20372   5.616   6.734   4.594  1.1705 -0.2535  2.2855
  148DOPC  H17S20373   5.490   6.623   4.639  0.1095 -0.9098 -0.5127
  148DOPC  C21820374   5.587   6.563   4.448 -0.6563 -0.1477 -0.2714
  148DOPC  H18R20375   5.559   6.457   4.461  1.8198 -0.5719  2.7681
  148DOPC  H18S20376   5.685   6.574   4.397  0.0151  0.4190  1.1022
  148DOPC  H18T20377   5.512   6.616   4.385 -0.1543 -1.2465 -1.8471
  148DOPC   C3320378   7.068   6.932   5.510 -0.2174  0.1052  0.4458
  148DOPC   H3X20379   7.164   6.979   5.540 -0.6679  0.2450  1.7305
  148DOPC   H3Y20380   7.002   6.937   5.599 -0.6223 -3.3669  0.4642
  148DOPC   C3420381   7.001   7.009   5.400  0.1455  0.0309  0.1833
  148DOPC   H4X20382   6.934   7.089   5.439  0.2664  0.7038 -0.9380
  148DOPC   H4Y20383   6.929   6.939   5.352  0.2010  0.6986 -0.9238
  148DOPC   C3520384   7.103   7.055   5.294  0.9049 -0.1413  0.5695
  148DOPC   H5X20385   7.149   6.961   5.255 -3.2200 -1.9335 -0.5002
  148DOPC   H5Y20386   7.175   7.125   5.341  1.4803 -1.2669  1.4067
  148DOPC   C3620387   7.040   7.122   5.174 -0.2390 -1.2503 -0.7434
  148DOPC   H6X20388   6.978   7.204   5.215  0.5854 -1.3365  0.7694
  148DOPC   H6Y20389   7.117   7.168   5.108 -1.6451 -0.5098 -1.9274
  148DOPC   C3720390   6.969   7.026   5.074  0.5416 -0.3303 -0.2361
  148DOPC   H7X20391   6.904   6.955   5.130 -3.2752  1.4580 -2.0739
  148DOPC   H7Y20392   6.910   7.106   5.024  0.1847  0.5374  1.5044
  148DOPC   C3820393   7.057   6.965   4.962  0.3553 -0.3425  0.6123
  148DOPC   H8X20394   7.142   6.906   5.003  0.3499 -0.3269  0.6467
  148DOPC   H8Y20395   7.101   7.048   4.903  1.5954  0.3065  2.3755
  148DOPC   C3920396   6.981   6.878   4.862  0.0484 -0.0343 -0.8736
  148DOPC   H9X20397   6.879   6.858   4.899 -0.0725 -0.1483 -1.2676
  148DOPC  C31020398   7.016   6.822   4.745  0.4226  0.7369  0.7619
  148DOPC  H10X20399   6.936   6.787   4.678  1.4544 -0.6802  0.2402
  148DOPC  C31120400   7.147   6.835   4.682  0.3388 -0.5529  0.3312
  148DOPC  H11X20401   7.194   6.735   4.670  0.5455 -0.4072 -0.0923
  148DOPC  H11Y20402   7.225   6.885   4.744  0.7542 -0.7638 -0.0120
  148DOPC  C31220403   7.135   6.908   4.549 -0.3799 -1.0736  0.1578
  148DOPC  H12X20404   7.045   6.877   4.491 -1.0946  0.8698  0.1303
  148DOPC  H12Y20405   7.228   6.912   4.488 -2.0172  0.4383 -2.4330
  148DOPC  C31320406   7.097   7.060   4.572 -0.1311  0.6115  0.6420
  148DOPC  H13X20407   7.169   7.111   4.639  1.3333 -0.7705  0.1945
  148DOPC  H13Y20408   6.996   7.054   4.619 -1.4929 -1.7006 -2.2227
  148DOPC  C31420409   7.080   7.142   4.443 -1.1173  0.1996  0.3924
  148DOPC  H14X20410   7.178   7.144   4.391 -0.1630  1.5896  2.1420
  148DOPC  H14Y20411   7.008   7.106   4.367  1.6263  0.5488 -2.5798
  148DOPC  C31520412   7.033   7.290   4.467  0.2876  0.3521 -0.1388
  148DOPC  H15X20413   6.934   7.283   4.517 -0.5958  0.9577 -1.7365
  148DOPC  H15Y20414   7.018   7.334   4.366  1.7782 -0.0196 -0.5559
  148DOPC  C31620415   7.125   7.380   4.557 -0.1092  0.6420  0.0677
  148DOPC  H16X20416   7.132   7.341   4.661  1.3786  2.9781  0.9196
  148DOPC  H16Y20417   7.225   7.382   4.509  0.8936 -0.9274  1.9483
  148DOPC  C31720418   7.079   7.525   4.570 -0.7932 -0.7390  0.3662
  148DOPC  H17X20419   7.089   7.578   4.473 -0.8831  1.1770  1.3538
  148DOPC  H17Y20420   6.969   7.530   4.584 -0.7624 -0.0864  0.3930
  148DOPC  C31820421   7.160   7.611   4.680  0.0783  0.0621  0.1274
  148DOPC  H18X20422   7.117   7.713   4.686  1.8809  0.7519  2.7993
  148DOPC  H18Y20423   7.158   7.574   4.785  1.7354  0.5110  0.3483
  148DOPC  H18Z20424   7.266   7.625   4.651 -0.0015  0.1778 -0.1172
  149DOPC     N20425   2.636   4.612   5.719 -0.8044 -0.0037 -0.1557
  149DOPC   C1220426   2.524   4.702   5.729 -0.4916 -0.2573 -0.0142
  149DOPC  H12A20427   2.483   4.707   5.829  0.6514 -0.8499  0.4961
  149DOPC  H12B20428   2.447   4.656   5.669  0.0019 -1.6352  0.3604
  149DOPC   C1320429   2.689   4.607   5.578 -0.1428  0.3347  0.1689
  149DOPC  H13A20430   2.782   4.553   5.568 -1.9293 -2.6904 -1.6984
  149DOPC  H13B20431   2.614   4.559   5.516  0.1093  0.9348 -0.6264
  149DOPC  H13C20432   2.701   4.705   5.533 -0.6695 -0.5635 -2.0722
  149DOPC   C1420433   2.591   4.476   5.757  0.0403 -0.1558 -0.1794
  149DOPC  H14A20434   2.503   4.437   5.708 -0.0543 -0.0394 -0.1041
  149DOPC  H14B20435   2.671   4.406   5.739  0.6565 -0.1207  2.0655
  149DOPC  H14C20436   2.569   4.464   5.862  0.7655 -2.0563 -0.2154
  149DOPC   C1520437   2.746   4.646   5.807  0.5370 -0.3035 -0.3695
  149DOPC  H15A20438   2.792   4.738   5.773  2.0913 -0.9046  0.0004
  149DOPC  H15B20439   2.825   4.573   5.810  0.8928  0.0277  3.0401
  149DOPC  H15C20440   2.713   4.666   5.908  0.2421 -1.7950 -0.1476
  149DOPC   C1120441   2.546   4.854   5.693  0.2622 -0.4941 -0.4958
  149DOPC  H11A20442   2.595   4.844   5.593  1.3727 -0.4302  0.0316
  149DOPC  H11B20443   2.453   4.913   5.680  1.5762  1.6300 -0.7288
  149DOPC     P20444   2.596   5.024   5.881  0.1367 -0.0832 -0.0824
  149DOPC   O1320445   2.712   5.055   5.974  0.5162  0.2888  0.4474
  149DOPC   O1420446   2.472   4.967   5.948  0.0770 -0.3440 -0.0755
  149DOPC   O1220447   2.644   4.921   5.766  0.1590  0.6263  0.0399
  149DOPC   O1120448   2.570   5.147   5.792 -0.1375 -0.0827  0.1478
  149DOPC    C120449   2.669   5.246   5.752 -0.3124  0.0039  0.4237
  149DOPC    HA20450   2.769   5.204   5.729  0.1752  1.4885 -0.3303
  149DOPC    HB20451   2.671   5.322   5.833 -3.0773  2.0396 -1.2317
  149DOPC    C220452   2.622   5.310   5.617  0.3187 -0.0949  0.0767
  149DOPC    HS20453   2.703   5.375   5.577  0.1850  0.7514  1.1286
  149DOPC   O2120454   2.491   5.371   5.628  0.2704  0.3024 -0.5311
  149DOPC   C2120455   2.493   5.486   5.693  0.0003  0.1981 -1.2308
  149DOPC   O2220456   2.595   5.538   5.732  0.3848 -0.4939 -0.8640
  149DOPC   C2220457   2.352   5.545   5.694  0.1536  0.0320  0.0146
  149DOPC   H2R20458   2.286   5.505   5.775  0.3786  0.3736  0.3668
  149DOPC   H2S20459   2.308   5.512   5.597  3.0644 -0.3414 -1.2685
  149DOPC    C320460   2.615   5.199   5.506 -0.2070 -0.3536  0.1555
  149DOPC    HX20461   2.564   5.109   5.548  2.0593 -0.1602  3.8234
  149DOPC    HY20462   2.718   5.166   5.482  1.1401  4.2842 -1.3302
  149DOPC   O3120463   2.564   5.242   5.376 -0.2546  0.1310 -0.5457
  149DOPC   C3120464   2.427   5.234   5.378 -0.6512 -0.1479  0.6506
  149DOPC   O3220465   2.367   5.150   5.441  0.2348 -0.0342  0.1322
  149DOPC   C3220466   2.365   5.336   5.287  0.0791 -0.1360  0.3288
  149DOPC   H2X20467   2.407   5.435   5.314  1.2133  0.1201 -2.1087
  149DOPC   H2Y20468   2.390   5.314   5.182 -0.7591  1.1306 -0.1622
  149DOPC   C2320469   2.345   5.698   5.701  0.1786 -0.1819  0.3309
  149DOPC   H3R20470   2.396   5.729   5.794 -0.2622  0.8452  0.2415
  149DOPC   H3S20471   2.237   5.721   5.709  0.1022 -0.4972  0.2050
  149DOPC   C2420472   2.401   5.778   5.582  0.0077 -0.3860 -0.1560
  149DOPC   H4R20473   2.342   5.760   5.490 -0.3143 -1.5561  0.2599
  149DOPC   H4S20474   2.509   5.759   5.570 -0.2568 -1.7965 -0.4817
  149DOPC   C2520475   2.386   5.931   5.619  0.2393 -0.9197 -0.2994
  149DOPC   H5R20476   2.435   5.967   5.712 -2.6636  0.6466  0.7604
  149DOPC   H5S20477   2.279   5.960   5.630  0.4411 -1.0095  2.7532
  149DOPC   C2620478   2.430   6.020   5.500 -0.9525 -0.1484  0.5640
  149DOPC   H6R20479   2.360   5.986   5.421  1.8024 -3.3045 -0.7509
  149DOPC   H6S20480   2.532   5.988   5.471  0.5815  3.5532  1.3508
  149DOPC   C2720481   2.416   6.172   5.524 -0.2706  0.4991  0.0805
  149DOPC   H7R20482   2.476   6.199   5.613 -1.6089  0.3079  1.0761
  149DOPC   H7S20483   2.310   6.199   5.545 -0.7288  0.6908 -2.1378
  149DOPC   C2820484   2.480   6.269   5.416  0.3552  0.0328  0.4244
  149DOPC   H8R20485   2.586   6.239   5.402  0.6641  0.9100  0.8045
  149DOPC   H8S20486   2.490   6.371   5.461 -1.7699  0.1701  0.6994
  149DOPC   C2920487   2.420   6.273   5.280  0.5192 -0.0630  0.3808
  149DOPC   H9R20488   2.411   6.169   5.245  0.5634  0.5407 -1.5298
  149DOPC  C21020489   2.395   6.375   5.200  0.8533 -0.0195  0.5747
  149DOPC  H10R20490   2.348   6.348   5.104 -0.2395 -1.8101  1.5689
  149DOPC  C21120491   2.411   6.521   5.232  0.3742 -0.6543  0.2272
  149DOPC  H11R20492   2.463   6.538   5.329 -0.8126  0.6889  0.6664
  149DOPC  H11S20493   2.311   6.565   5.251 -0.2776 -1.1113 -1.9544
  149DOPC  C21220494   2.469   6.595   5.102 -0.0768 -0.2357 -0.5280
  149DOPC  H12R20495   2.513   6.523   5.029  1.0122 -0.5730  0.4422
  149DOPC  H12S20496   2.552   6.661   5.133 -0.8073 -0.8172  3.1903
  149DOPC  C21320497   2.368   6.674   5.026  0.4568 -0.1217  0.3403
  149DOPC  H13R20498   2.336   6.763   5.085  0.0908  0.5566 -0.8544
  149DOPC  H13S20499   2.278   6.611   5.007 -0.0422  0.2785  1.2752
  149DOPC  C21420500   2.407   6.736   4.896 -0.4871 -0.1062 -0.1337
  149DOPC  H14R20501   2.439   6.645   4.841 -0.2050 -0.6043  0.8404
  149DOPC  H14S20502   2.495   6.803   4.894 -1.5593  1.3432  0.0052
  149DOPC  C21520503   2.298   6.805   4.828 -0.3395 -0.4579  0.1625
  149DOPC  H15R20504   2.258   6.885   4.894 -2.6204 -2.4522  1.3920
  149DOPC  H15S20505   2.213   6.733   4.820 -1.5040  0.9378 -0.5191
  149DOPC  C21620506   2.340   6.864   4.693  0.0666 -0.2117 -0.1965
  149DOPC  H16R20507   2.346   6.774   4.627  0.1802 -1.5776  1.6128
  149DOPC  H16S20508   2.433   6.926   4.695 -0.2393  0.2947 -1.0834
  149DOPC  C21720509   2.226   6.972   4.659 -0.0980  0.5050 -0.1872
  149DOPC  H17R20510   2.221   7.059   4.729 -0.0261  0.5750 -0.2685
  149DOPC  H17S20511   2.134   6.918   4.691  2.1200 -1.9844  2.5545
  149DOPC  C21820512   2.218   7.014   4.513 -0.7158 -0.0334 -0.3766
  149DOPC  H18R20513   2.126   7.071   4.492 -0.4066  0.3330 -0.7473
  149DOPC  H18S20514   2.218   6.926   4.446 -1.0932  0.4627 -1.0390
  149DOPC  H18T20515   2.305   7.077   4.483  0.8353 -2.5539 -1.4894
  149DOPC   C3320516   2.209   5.332   5.302  0.4333 -0.3142 -0.3766
  149DOPC   H3X20517   2.201   5.365   5.408  1.8954 -0.6513 -0.1299
  149DOPC   H3Y20518   2.163   5.233   5.282  0.5505 -0.4724  0.1113
  149DOPC   C3420519   2.130   5.448   5.238  0.4403  0.1530  0.5025
  149DOPC   H4X20520   2.187   5.542   5.246 -1.9291  1.7860 -0.6574
  149DOPC   H4Y20521   2.038   5.464   5.297 -0.6614  0.6334 -1.2641
  149DOPC   C3520522   2.098   5.406   5.096 -0.6547 -0.4756  0.5616
  149DOPC   H5X20523   2.029   5.319   5.092 -2.7800  1.1148  0.5406
  149DOPC   H5Y20524   2.190   5.374   5.043  0.3809  1.0121  1.3763
  149DOPC   C3620525   2.029   5.521   5.015 -0.4028 -0.0770 -0.4412
  149DOPC   H6X20526   1.988   5.480   4.920 -0.8994  0.4509 -0.4550
  149DOPC   H6Y20527   1.946   5.567   5.072 -0.9966  0.1388 -1.4666
  149DOPC   C3720528   2.115   5.642   4.967  0.0115 -0.3557 -0.3104
  149DOPC   H7X20529   2.052   5.717   4.916  1.4752 -0.2218 -2.0124
  149DOPC   H7Y20530   2.171   5.687   5.052 -0.1324 -0.9368  0.0957
  149DOPC   C3820531   2.234   5.608   4.873 -0.9388  0.1681 -0.0549
  149DOPC   H8X20532   2.316   5.553   4.925 -1.9315 -0.1354  1.2345
  149DOPC   H8Y20533   2.285   5.705   4.852 -0.0780  0.1798  1.9021
  149DOPC   C3920534   2.183   5.541   4.751  0.2986 -0.2788  0.4098
  149DOPC   H9X20535   2.077   5.557   4.729  0.5240  0.7548  0.0532
  149DOPC  C31020536   2.244   5.446   4.673 -0.1265  0.4441  0.2175
  149DOPC  H10X20537   2.188   5.409   4.585  0.9915  0.4432 -0.5138
  149DOPC  C31120538   2.383   5.388   4.692  0.5822  0.2476 -0.8300
  149DOPC  H11X20539   2.368   5.279   4.686  0.2780  0.2026  0.4211
  149DOPC  H11Y20540   2.427   5.399   4.793 -2.0946 -0.0763  0.4522
  149DOPC  C31220541   2.489   5.435   4.589 -0.2219 -0.2165 -0.3563
  149DOPC  H12X20542   2.458   5.419   4.484 -1.3501 -0.2638 -0.0294
  149DOPC  H12Y20543   2.580   5.372   4.604  0.8753  1.7580  2.0613
  149DOPC  C31320544   2.529   5.586   4.603  0.1754  0.5386  0.3583
  149DOPC  H13X20545   2.437   5.647   4.611 -0.3385  0.1287 -1.8521
  149DOPC  H13Y20546   2.584   5.598   4.699 -0.4593 -0.5099  0.8609
  149DOPC  C31420547   2.622   5.654   4.503 -0.2569  0.1305  0.4842
  149DOPC  H14X20548   2.593   5.656   4.395  2.5950  0.6751 -0.3386
  149DOPC  H14Y20549   2.616   5.763   4.522 -1.3421  0.6832 -2.3592
  149DOPC  C31520550   2.762   5.598   4.505 -0.4113  0.2026  0.1524
  149DOPC  H15X20551   2.765   5.488   4.489 -0.3292 -0.0108  1.5096
  149DOPC  H15Y20552   2.799   5.609   4.609 -3.5059  1.7436  1.2316
  149DOPC  C31620553   2.861   5.668   4.408  0.1828 -0.1192  0.4502
  149DOPC  H16X20554   2.816   5.691   4.308  2.3232 -0.1015 -0.5625
  149DOPC  H16Y20555   2.883   5.763   4.462  1.0346  0.1168 -0.2771
  149DOPC  C31720556   3.004   5.603   4.378  0.2412  0.4824 -0.0594
  149DOPC  H17X20557   3.050   5.567   4.473  2.6395 -1.0168 -1.6666
  149DOPC  H17Y20558   2.995   5.512   4.314  1.8098 -1.6723  2.5480
  149DOPC  C31820559   3.100   5.692   4.305 -0.2727 -0.0231 -0.2379
  149DOPC  H18X20560   3.060   5.751   4.220  0.0663 -1.0959 -1.1662
  149DOPC  H18Y20561   3.130   5.761   4.387 -1.0917  1.2790 -1.0120
  149DOPC  H18Z20562   3.194   5.645   4.271 -0.4011  0.7359 -1.7264
  150DOPC     N20563  11.531  11.113   6.196  0.4024  0.1358 -0.6463
  150DOPC   C1220564  11.521  11.203   6.073 -0.3179  0.3116  0.4469
  150DOPC  H12A20565  11.475  11.295   6.107 -1.3961 -0.5850  1.4805
  150DOPC  H12B20566  11.456  11.160   5.998 -1.3999  0.7113  1.1296
  150DOPC   C1320567  11.571  10.970   6.161 -0.0750 -0.1640 -0.0634
  150DOPC  H13A20568  11.550  10.904   6.243 -2.2951 -0.7727 -1.0363
  150DOPC  H13B20569  11.512  10.929   6.080 -0.5139 -0.4918  0.4135
  150DOPC  H13C20570  11.677  10.962   6.144 -0.7483 -2.8515 -4.3819
  150DOPC   C1420571  11.392  11.110   6.255 -0.5392 -0.0604 -0.1103
  150DOPC  H14A20572  11.385  11.046   6.342  1.0085  0.7150  0.6196
  150DOPC  H14B20573  11.357  11.208   6.284  1.4254  0.1061  1.9439
  150DOPC  H14C20574  11.325  11.072   6.179 -0.2938 -0.0065 -0.3524
  150DOPC   C1520575  11.629  11.161   6.303  0.0532  0.3669  0.5638
  150DOPC  H15A20576  11.643  11.088   6.382 -0.7811 -0.1499  0.2581
  150DOPC  H15B20577  11.595  11.258   6.335  1.4473  1.6645 -1.6139
  150DOPC  H15C20578  11.721  11.190   6.255 -0.7820  1.1248 -0.6177
  150DOPC   C1120579  11.660  11.229   6.007 -0.0274 -0.3914  0.4104
  150DOPC  H11A20580  11.695  11.129   5.973  0.6965 -0.5187  1.4715
  150DOPC  H11B20581  11.637  11.289   5.916  0.9370 -0.6258  0.0003
  150DOPC     P20582  11.755  11.456   6.107  0.3068 -0.2055 -0.1046
  150DOPC   O1320583  11.861  11.496   6.202 -0.6066 -0.4699 -0.0795
  150DOPC   O1420584  11.622  11.504   6.145 -0.2704 -0.5420  0.3492
  150DOPC   O1220585  11.752  11.303   6.086 -0.6389 -0.3546  0.1655
  150DOPC   O1120586  11.791  11.495   5.960 -0.1547 -0.5691  0.1378
  150DOPC    C120587  11.923  11.475   5.916 -0.2721  0.1659  0.0037
  150DOPC    HA20588  11.950  11.367   5.915  1.2812  0.5420 -0.5223
  150DOPC    HB20589  11.996  11.537   5.972  0.7466 -0.5649 -0.4694
  150DOPC    C220590  11.925  11.515   5.760  0.3875  0.1111  0.3621
  150DOPC    HS20591  12.013  11.470   5.708 -0.4544 -0.7186 -0.3895
  150DOPC   O2120592  11.916  11.657   5.741 -0.6635  0.1107  0.3323
  150DOPC   C2120593  12.029  11.722   5.763  0.4986 -0.2060 -0.7461
  150DOPC   O2220594  12.127  11.677   5.816  0.0470  0.3918 -0.3052
  150DOPC   C2220595  12.009  11.871   5.723  0.1012  0.1220 -0.9901
  150DOPC   H2R20596  11.989  11.918   5.821  1.6070 -1.4402  0.1170
  150DOPC   H2S20597  11.917  11.883   5.663  0.9549  0.0123 -2.3763
  150DOPC    C320598  11.790  11.466   5.684 -0.1312 -0.0149  0.1870
  150DOPC    HX20599  11.703  11.514   5.735 -0.9791 -0.6556 -0.6257
  150DOPC    HY20600  11.779  11.357   5.699  1.8459 -0.2041  0.4694
  150DOPC   O3120601  11.810  11.499   5.540 -0.2814  0.3026 -0.1710
  150DOPC   C3120602  11.727  11.587   5.491  0.6033 -0.2616 -0.1627
  150DOPC   O3220603  11.639  11.639   5.558  0.5019 -0.2210  0.1254
  150DOPC   C3220604  11.761  11.626   5.349  0.8887  0.1599 -0.0595
  150DOPC   H2X20605  11.832  11.711   5.352 -0.9609  1.7244  1.0800
  150DOPC   H2Y20606  11.812  11.541   5.298 -0.6799 -0.5192 -0.5460
  150DOPC   C2320607  12.136  11.941   5.652  0.0742 -0.1277  0.2958
  150DOPC   H3R20608  12.226  11.880   5.674  0.1600 -0.9461 -1.9609
  150DOPC   H3S20609  12.150  12.045   5.687 -0.0276  0.2598 -0.7738
  150DOPC   C2420610  12.121  11.938   5.500 -0.2810 -0.6402  0.0083
  150DOPC   H4R20611  12.083  11.841   5.464 -0.9925 -1.5700  2.9411
  150DOPC   H4S20612  12.223  11.951   5.460 -0.2758 -0.6599  0.0160
  150DOPC   C2520613  12.026  12.044   5.439  0.2185 -0.6163  0.7315
  150DOPC   H5R20614  12.060  12.146   5.469 -3.2471  0.4904  1.3726
  150DOPC   H5S20615  11.921  12.020   5.469  0.4928 -0.9470  1.4539
  150DOPC   C2620616  12.028  12.042   5.288  0.7537 -0.0593  0.8682
  150DOPC   H6R20617  12.036  11.939   5.249  0.8359  0.7395 -1.3907
  150DOPC   H6S20618  12.118  12.095   5.251  0.7742 -0.7697 -0.1425
  150DOPC   C2720619  11.901  12.111   5.221  0.0896  0.1630  0.5570
  150DOPC   H7R20620  11.905  12.220   5.241 -0.9245  0.5347 -1.1300
  150DOPC   H7S20621  11.812  12.075   5.276  2.1383 -0.6037  3.6348
  150DOPC   C2820622  11.898  12.071   5.070 -0.5018  0.8308  0.0183
  150DOPC   H8R20623  11.920  11.963   5.055  0.3382  1.3476 -3.2866
  150DOPC   H8S20624  11.992  12.117   5.031  0.7236 -0.8361  0.8619
  150DOPC   C2920625  11.764  12.106   5.002  0.0993  0.6361  0.1135
  150DOPC   H9R20626  11.672  12.054   5.031  0.4416  0.0902  0.2366
  150DOPC  C21020627  11.747  12.202   4.911  0.0589  0.0021  0.4256
  150DOPC  H10R20628  11.650  12.199   4.859 -0.2667 -1.0820  1.0803
  150DOPC  C21120629  11.856  12.286   4.842  0.7654  0.2876  0.4129
  150DOPC  H11R20630  11.959  12.263   4.879  0.3791 -1.9926  0.2247
  150DOPC  H11S20631  11.848  12.397   4.840 -0.0111  0.2644  1.4479
  150DOPC  C21220632  11.864  12.249   4.689  0.3794  0.3415 -0.6803
  150DOPC  H12R20633  11.888  12.141   4.677 -0.5147 -0.3725  2.9032
  150DOPC  H12S20634  11.945  12.314   4.650  0.2889 -0.4092 -2.1846
  150DOPC  C21320635  11.749  12.290   4.608  0.0517 -0.0030  0.5781
  150DOPC  H13R20636  11.701  12.386   4.634 -2.4880 -1.4186  1.4458
  150DOPC  H13S20637  11.670  12.213   4.619  0.8381 -0.9474 -0.1173
  150DOPC  C21420638  11.767  12.304   4.452 -0.0778  0.3180 -0.5505
  150DOPC  H14R20639  11.825  12.215   4.417 -0.9681 -0.1620 -0.8553
  150DOPC  H14S20640  11.826  12.395   4.428  0.3215  0.8659  2.2487
  150DOPC  C21520641  11.632  12.307   4.376  0.0778 -0.3368  0.7414
  150DOPC  H15R20642  11.575  12.217   4.407  2.3896 -2.3771 -0.5535
  150DOPC  H15S20643  11.642  12.301   4.265 -1.7743  1.0347  0.4632
  150DOPC  C21620644  11.539  12.420   4.417 -0.0233  0.1448 -0.1816
  150DOPC  H16R20645  11.603  12.509   4.437  2.4564 -2.0041  2.2475
  150DOPC  H16S20646  11.478  12.389   4.504 -0.2812 -0.4828 -0.5721
  150DOPC  C21720647  11.434  12.463   4.308  0.4058  0.2394 -0.0605
  150DOPC  H17R20648  11.366  12.380   4.280 -1.4570  1.9231 -0.7197
  150DOPC  H17S20649  11.491  12.490   4.217  2.1943  0.8280  1.1722
  150DOPC  C21820650  11.358  12.589   4.339  0.1295 -1.3231 -0.2467
  150DOPC  H18R20651  11.430  12.671   4.359 -0.7518 -0.9664  1.5763
  150DOPC  H18S20652  11.299  12.562   4.428 -2.1659  2.8788 -0.2308
  150DOPC  H18T20653  11.295  12.621   4.253 -1.0579 -0.7941  0.7956
  150DOPC   C3320654  11.628  11.655   5.275 -0.8195 -0.0511 -0.8667
  150DOPC   H3X20655  11.572  11.731   5.333  1.5936  0.7032  0.6381
  150DOPC   H3Y20656  11.568  11.563   5.261 -2.9456  1.3968 -1.7253
  150DOPC   C3420657  11.654  11.711   5.140 -0.2584  0.6168  0.2779
  150DOPC   H4X20658  11.724  11.797   5.152  2.8562 -1.5676 -0.8210
  150DOPC   H4Y20659  11.559  11.749   5.097 -0.1198  0.4438 -0.1927
  150DOPC   C3520660  11.699  11.594   5.042 -0.2702  0.1820 -0.6766
  150DOPC   H5X20661  11.614  11.525   5.029  1.2215 -1.6389 -1.1840
  150DOPC   H5Y20662  11.789  11.537   5.074 -0.1736  0.3583 -0.6346
  150DOPC   C3620663  11.736  11.641   4.902  0.4505 -0.1723 -0.5853
  150DOPC   H6X20664  11.716  11.555   4.834 -0.0813 -0.2268 -0.3637
  150DOPC   H6Y20665  11.663  11.717   4.867 -0.4803  0.3693  2.2725
  150DOPC   C3720666  11.882  11.686   4.880  0.0787 -0.4513  0.4034
  150DOPC   H7X20667  11.889  11.767   4.955  0.3442  1.0348 -1.1666
  150DOPC   H7Y20668  11.955  11.611   4.916 -0.9692 -2.0954 -0.7495
  150DOPC   C3820669  11.911  11.752   4.745  1.1413  0.1688  0.1306
  150DOPC   H8X20670  11.925  11.668   4.674  3.3505  0.0922  0.5645
  150DOPC   H8Y20671  12.012  11.800   4.745  1.5409 -0.5437  2.3177
  150DOPC   C3920672  11.810  11.854   4.696 -0.5905  0.3519 -0.4961
  150DOPC   H9X20673  11.756  11.894   4.783  3.2768  0.8684  1.8893
  150DOPC  C31020674  11.784  11.887   4.569  0.4315 -0.5893  0.2199
  150DOPC  H10X20675  11.697  11.950   4.548  0.4702 -0.3275  0.8354
  150DOPC  C31120676  11.857  11.837   4.449  0.2270 -0.0372 -0.4356
  150DOPC  H11X20677  11.780  11.831   4.370 -0.3672  0.8941  0.0477
  150DOPC  H11Y20678  11.894  11.739   4.487 -2.1058  0.1531  2.7884
  150DOPC  C31220679  11.978  11.926   4.408  0.2320 -0.3643  0.4162
  150DOPC  H12X20680  12.053  11.940   4.489  1.8161 -1.6519 -0.7795
  150DOPC  H12Y20681  11.943  12.031   4.394  0.8901 -0.3996 -1.8571
  150DOPC  C31320682  12.052  11.866   4.283  0.2451  0.6883 -0.1162
  150DOPC  H13X20683  12.086  11.956   4.228 -0.8531  1.2891  0.1732
  150DOPC  H13Y20684  12.145  11.816   4.318  1.4636  2.7861 -0.2441
  150DOPC  C31420685  11.967  11.773   4.191  0.3710 -0.3221  0.8769
  150DOPC  H14X20686  11.923  11.686   4.244 -0.4904 -0.7955 -0.5463
  150DOPC  H14Y20687  11.878  11.833   4.162 -0.1625 -2.0308 -1.2743
  150DOPC  C31520688  12.039  11.716   4.068 -0.5135  0.5285 -0.7281
  150DOPC  H15X20689  12.148  11.707   4.088 -0.9833 -1.4105  1.2849
  150DOPC  H15Y20690  12.032  11.773   3.972 -1.3376 -1.4650 -1.9351
  150DOPC  C31620691  11.984  11.572   4.042  0.6878 -0.6766  0.3170
  150DOPC  H16X20692  12.054  11.532   3.965  2.8193  0.5295  1.5350
  150DOPC  H16Y20693  11.985  11.501   4.127  0.4691 -1.5400 -0.3874
  150DOPC  C31720694  11.839  11.576   3.990 -0.0687 -1.0704 -0.2049
  150DOPC  H17X20695  11.778  11.585   4.082  0.8182 -0.7488  0.3735
  150DOPC  H17Y20696  11.817  11.664   3.926 -1.8093 -3.0346 -2.4743
  150DOPC  C31820697  11.793  11.460   3.900 -0.1773  0.7587  0.6471
  150DOPC  H18X20698  11.815  11.371   3.962  1.0589  0.6942  0.1583
  150DOPC  H18Y20699  11.684  11.465   3.881  0.2091  1.3360 -1.6744
  150DOPC  H18Z20700  11.850  11.457   3.804 -0.8933  0.4228  0.2290
  151DOPC     N20701   1.213   6.960   6.645  0.0956 -0.7233  0.2356
  151DOPC   C1220702   1.151   6.977   6.508 -1.1515  0.3333 -0.5143
  151DOPC  H12A20703   1.145   7.083   6.488  1.5732  0.6849  0.0548
  151DOPC  H12B20704   1.050   6.942   6.516 -1.2531  0.6714 -0.2933
  151DOPC   C1320705   1.104   6.996   6.744 -0.8284  0.3357  0.2963
  151DOPC  H13A20706   1.063   7.095   6.739  0.1243  0.7215 -0.0335
  151DOPC  H13B20707   1.026   6.921   6.742  2.1605 -3.0297 -1.0449
  151DOPC  H13C20708   1.154   6.995   6.840 -1.8530  2.0180  0.8977
  151DOPC   C1420709   1.319   7.058   6.683 -0.1968  0.0384  0.2832
  151DOPC  H14A20710   1.345   7.049   6.787  0.3587 -1.3151  0.0604
  151DOPC  H14B20711   1.403   7.072   6.616  1.5225  3.0310  2.8409
  151DOPC  H14C20712   1.260   7.147   6.672 -0.7694 -0.1148  1.9069
  151DOPC   C1520713   1.257   6.825   6.658  0.0246  0.2016  0.6007
  151DOPC  H15A20714   1.184   6.759   6.614  1.6013 -1.9687  1.0375
  151DOPC  H15B20715   1.282   6.793   6.758  1.9637 -4.0716 -0.9771
  151DOPC  H15C20716   1.347   6.801   6.602  0.1948  0.5529  0.7195
  151DOPC   C1120717   1.216   6.918   6.380 -0.0931  0.9617  0.0334
  151DOPC  H11A20718   1.191   6.810   6.376 -2.4811  1.4909 -1.0333
  151DOPC  H11B20719   1.158   6.960   6.295  0.0301  0.4058 -0.3260
  151DOPC     P20720   1.464   6.869   6.315 -0.0315 -0.1231 -0.0579
  151DOPC   O1320721   1.445   6.737   6.372 -0.0913  0.4477 -0.1777
  151DOPC   O1420722   1.597   6.932   6.321  0.0755 -0.1266  0.0168
  151DOPC   O1220723   1.352   6.959   6.373 -0.0891  0.1419  0.3746
  151DOPC   O1120724   1.428   6.851   6.161 -0.2072  0.3288  0.6759
  151DOPC    C120725   1.443   6.961   6.073  0.0653  0.1698  0.1373
  151DOPC    HA20726   1.544   7.007   6.071  0.1029  0.1394 -2.8994
  151DOPC    HB20727   1.372   7.037   6.111  1.6535  1.0930  1.3915
  151DOPC    C220728   1.401   6.921   5.929 -0.0541 -0.5585  0.1696
  151DOPC    HS20729   1.303   6.869   5.936 -0.8855  0.9421 -0.0938
  151DOPC   O2120730   1.495   6.838   5.868  0.2282  0.3871 -0.4454
  151DOPC   C2120731   1.462   6.759   5.769 -0.2185  0.3174 -0.4812
  151DOPC   O2220732   1.350   6.731   5.733  0.6991  0.1005  0.3861
  151DOPC   C2220733   1.596   6.722   5.704  0.3420 -0.0765 -0.3159
  151DOPC   H2R20734   1.587   6.621   5.660 -1.5557 -0.8070  1.5828
  151DOPC   H2S20735   1.683   6.722   5.774  0.0284  1.5018  0.1171
  151DOPC    C320736   1.390   7.052   5.845  0.2483  0.5010  0.6311
  151DOPC    HX20737   1.482   7.115   5.834  0.0866  0.5891 -0.3163
  151DOPC    HY20738   1.328   7.127   5.900  1.6615  0.5261  2.2728
  151DOPC   O3120739   1.342   7.024   5.704 -0.2096 -0.5078  0.1729
  151DOPC   C3120740   1.219   6.995   5.695  0.3968  0.0246  0.5900
  151DOPC   O3220741   1.137   6.988   5.785  0.5101 -0.2073  0.2473
  151DOPC   C3220742   1.188   6.981   5.540  0.0051 -0.1871  0.3641
  151DOPC   H2X20743   1.277   7.017   5.484  0.4208  1.0064  1.7382
  151DOPC   H2Y20744   1.161   6.875   5.519  0.7616 -0.3308  0.0983
  151DOPC   C2320745   1.617   6.821   5.591 -0.0940  0.4016  0.0919
  151DOPC   H3R20746   1.723   6.825   5.559 -0.0696  0.4786  0.1833
  151DOPC   H3S20747   1.610   6.927   5.625 -2.7702  1.0186 -2.0666
  151DOPC   C2420748   1.521   6.788   5.472  0.2855 -0.0081  0.3953
  151DOPC   H4R20749   1.415   6.800   5.506  0.4602  1.4799  0.5059
  151DOPC   H4S20750   1.539   6.688   5.429 -0.8889  0.3419 -1.0019
  151DOPC   C2520751   1.536   6.884   5.351  1.0304  0.4675 -1.0723
  151DOPC   H5R20752   1.644   6.871   5.330  1.4331  1.3837  0.2658
  151DOPC   H5S20753   1.522   6.990   5.383  1.2482 -0.0093  0.7252
  151DOPC   C2620754   1.455   6.840   5.232 -0.4985  0.2628  0.2162
  151DOPC   H6R20755   1.359   6.812   5.281 -0.7790 -0.6679 -0.8323
  151DOPC   H6S20756   1.476   6.741   5.187  0.0597  0.6569 -0.4188
  151DOPC   C2720757   1.450   6.943   5.118 -0.0762  0.6293 -0.7197
  151DOPC   H7R20758   1.550   6.983   5.092  0.0381  1.5937  1.1031
  151DOPC   H7S20759   1.415   7.043   5.150 -1.1311  0.4770 -1.3366
  151DOPC   C2820760   1.376   6.895   4.988 -0.3691  0.1372 -0.8678
  151DOPC   H8R20761   1.273   6.871   5.024  0.0105 -1.0421 -0.5174
  151DOPC   H8S20762   1.425   6.799   4.962 -0.1430  0.0689 -0.2011
  151DOPC   C2920763   1.365   6.999   4.886  0.1500 -0.5430  0.2994
  151DOPC   H9R20764   1.313   7.093   4.910  3.2269  1.5694 -0.7079
  151DOPC  C21020765   1.416   6.987   4.761  0.4685  1.0726 -0.1539
  151DOPC  H10R20766   1.420   7.078   4.700 -0.8625  2.4063  1.6416
  151DOPC  C21120767   1.496   6.866   4.708  0.4423  0.7694  0.5581
  151DOPC  H11R20768   1.452   6.772   4.748 -2.3009  1.6672 -0.1242
  151DOPC  H11S20769   1.602   6.872   4.738  0.4553  0.8634  0.4922
  151DOPC  C21220770   1.492   6.839   4.553 -0.3001 -0.3274  0.2344
  151DOPC  H12R20771   1.390   6.803   4.526 -0.0727  0.1729 -1.4198
  151DOPC  H12S20772   1.561   6.753   4.539  0.5964  0.3628  0.3971
  151DOPC  C21320773   1.524   6.950   4.450  0.1803  0.2314  0.0377
  151DOPC  H13R20774   1.614   7.007   4.478  0.2206  0.0159  0.3517
  151DOPC  H13S20775   1.437   7.019   4.441  1.5905  2.0191 -0.4476
  151DOPC  C21420776   1.557   6.891   4.311 -0.1141  0.5446  1.1117
  151DOPC  H14R20777   1.474   6.832   4.267  1.0480 -1.0730  1.0177
  151DOPC  H14S20778   1.637   6.815   4.322  0.1922  0.2630 -1.9572
  151DOPC  C21520779   1.599   6.993   4.207  0.2762 -0.4604  0.2297
  151DOPC  H15R20780   1.681   7.055   4.250  0.1228  1.9255 -2.5967
  151DOPC  H15S20781   1.523   7.070   4.182  3.3531  2.6763 -0.3340
  151DOPC  C21620782   1.661   6.923   4.077  0.0453  0.2982 -0.1271
  151DOPC  H16R20783   1.743   6.861   4.119 -1.3133 -0.8726  0.8843
  151DOPC  H16S20784   1.713   7.000   4.016  1.2983 -1.1996 -1.0285
  151DOPC  C21720785   1.563   6.851   3.990  0.2599  0.5594 -0.0786
  151DOPC  H17R20786   1.490   6.920   3.944  0.0132 -0.0296 -0.5866
  151DOPC  H17S20787   1.502   6.785   4.056 -0.1591  0.5726 -0.4484
  151DOPC  C21820788   1.615   6.761   3.877 -0.1540 -0.4000  0.0961
  151DOPC  H18R20789   1.538   6.689   3.841 -1.3014  1.4543 -1.3942
  151DOPC  H18S20790   1.707   6.709   3.911  0.1149 -0.2529 -0.3919
  151DOPC  H18T20791   1.653   6.828   3.797 -2.0074  0.7863  0.1624
  151DOPC   C3320792   1.057   7.053   5.491  0.0841 -0.0709  0.1699
  151DOPC   H3X20793   0.971   7.033   5.559  0.0183 -0.2181  0.0455
  151DOPC   H3Y20794   1.038   7.030   5.384  0.5722  1.7468 -0.3426
  151DOPC   C3420795   1.086   7.199   5.498  0.0057  0.1973 -0.2322
  151DOPC   H4X20796   1.104   7.234   5.602 -0.3095  0.5045 -0.2747
  151DOPC   H4Y20797   0.990   7.255   5.487 -0.3632 -0.4797 -0.5399
  151DOPC   C3520798   1.187   7.270   5.403 -0.8896  0.3174 -0.2472
  151DOPC   H5X20799   1.286   7.220   5.411 -1.1927 -0.1737  0.6076
  151DOPC   H5Y20800   1.200   7.377   5.432 -2.2608  1.2847 -2.9243
  151DOPC   C3620801   1.145   7.267   5.251  0.0618  0.6121 -0.0711
  151DOPC   H6X20802   1.148   7.159   5.226 -0.8356  0.9235 -1.6745
  151DOPC   H6Y20803   1.039   7.292   5.232  0.1778  1.0324 -0.1779
  151DOPC   C3720804   1.234   7.346   5.168 -0.8484 -0.6213 -0.2690
  151DOPC   H7X20805   1.229   7.453   5.200  0.5795 -0.4176 -0.6819
  151DOPC   H7Y20806   1.341   7.318   5.174 -0.2306  1.3811 -1.0266
  151DOPC   C3820807   1.183   7.350   5.023 -0.0620 -0.9456  0.3666
  151DOPC   H8X20808   1.076   7.375   5.010  0.3632 -0.7990 -4.7320
  151DOPC   H8Y20809   1.177   7.245   4.986 -2.6473 -1.0322  0.8371
  151DOPC   C3920810   1.271   7.442   4.938 -0.2179  0.4446  0.1014
  151DOPC   H9X20811   1.328   7.517   4.995 -0.9953 -1.1784  3.2062
  151DOPC  C31020812   1.292   7.433   4.807 -0.3014  0.0086 -0.3220
  151DOPC  H10X20813   1.355   7.508   4.758  0.4959 -1.2170 -1.2294
  151DOPC  C31120814   1.225   7.338   4.713 -0.0337 -0.7874  0.2684
  151DOPC  H11X20815   1.183   7.258   4.777 -0.5960 -1.0794 -0.4472
  151DOPC  H11Y20816   1.293   7.302   4.633 -2.2357 -1.7232 -1.2909
  151DOPC  C31220817   1.112   7.402   4.633  0.4451 -0.5332  0.3755
  151DOPC  H12X20818   1.032   7.453   4.691  0.4377  0.5328 -0.5278
  151DOPC  H12Y20819   1.060   7.320   4.578 -0.9417 -0.8611  2.0898
  151DOPC  C31320820   1.164   7.493   4.521  0.2337 -0.4682 -0.6031
  151DOPC  H13X20821   1.093   7.574   4.496 -0.5462 -0.9630 -0.0257
  151DOPC  H13Y20822   1.262   7.535   4.552 -0.0408 -1.1042  1.2374
  151DOPC  C31420823   1.194   7.423   4.387  0.4112 -0.1125  0.6459
  151DOPC  H14X20824   1.286   7.361   4.397 -0.9123 -1.9953  1.8673
  151DOPC  H14Y20825   1.113   7.354   4.354  1.9875 -1.9642  0.3969
  151DOPC  C31520826   1.198   7.524   4.272  0.6576  0.0285 -0.7168
  151DOPC  H15X20827   1.272   7.601   4.301  0.5240 -0.1066  0.0118
  151DOPC  H15Y20828   1.092   7.559   4.266  0.2517 -0.8033  0.8541
  151DOPC  C31620829   1.240   7.463   4.138 -0.3188 -0.2190 -0.5480
  151DOPC  H16X20830   1.166   7.382   4.117 -1.6525  0.2621  1.9184
  151DOPC  H16Y20831   1.234   7.539   4.058 -1.3541 -1.2969 -1.5410
  151DOPC  C31720832   1.378   7.399   4.133 -0.3855  0.1777  0.2289
  151DOPC  H17X20833   1.384   7.351   4.233  1.7851  0.7164  0.4228
  151DOPC  H17Y20834   1.380   7.327   4.048 -0.0519 -1.5049  1.6121
  151DOPC  C31820835   1.494   7.500   4.131 -0.4598 -0.5176  0.4297
  151DOPC  H18X20836   1.494   7.571   4.216  0.1917 -1.0942  0.9279
  151DOPC  H18Y20837   1.588   7.440   4.134  0.0662  0.3155  2.2667
  151DOPC  H18Z20838   1.488   7.551   4.032  0.1708  0.4222  0.8606
  152DOPC     N20839  11.876   8.182   5.902 -0.9059  0.1424  0.2366
  152DOPC   C1220840  11.907   8.041   5.854  0.1325  0.0442  0.1529
  152DOPC  H12A20841  12.013   8.034   5.834 -0.3107 -0.8564 -2.2008
  152DOPC  H12B20842  11.871   8.033   5.752 -0.2171  1.4155  0.1442
  152DOPC   C1320843  11.729   8.182   5.925 -0.2842  0.0098  0.2102
  152DOPC  H13A20844  11.672   8.159   5.835 -1.6563  0.9205  0.8044
  152DOPC  H13B20845  11.701   8.112   6.002 -0.7529 -1.4299 -1.2011
  152DOPC  H13C20846  11.699   8.281   5.957  2.0595  0.3822  1.4572
  152DOPC   C1420847  11.901   8.277   5.800  0.3919  0.1448  0.4535
  152DOPC  H14A20848  12.004   8.253   5.778  0.7768  1.0292  1.2331
  152DOPC  H14B20849  11.832   8.269   5.718 -0.3287  0.9915  0.9565
  152DOPC  H14C20850  11.887   8.380   5.828 -3.9461 -0.3830  0.9234
  152DOPC   C1520851  11.945   8.218   6.028  0.2716  0.1281 -0.4171
  152DOPC  H15A20852  11.926   8.322   6.047  0.3238 -0.1942  1.7236
  152DOPC  H15B20853  12.052   8.203   6.031  0.4002  1.1532  1.1317
  152DOPC  H15C20854  11.897   8.173   6.114 -0.4630  0.4797 -0.6428
  152DOPC   C1120855  11.873   7.920   5.950  0.3032 -0.4563 -0.2248
  152DOPC  H11A20856  11.764   7.922   5.971  0.5460  0.6719  1.1593
  152DOPC  H11B20857  11.882   7.827   5.891 -0.1311 -0.1319 -0.8081
  152DOPC     P20858  12.097   7.858   6.069 -0.1837 -0.1937  0.0053
  152DOPC   O1320859  12.093   7.724   6.132  0.1880  0.1930 -0.3142
  152DOPC   O1420860  12.196   7.956   6.121 -0.1348 -0.0117 -0.0910
  152DOPC   O1220861  11.945   7.920   6.072  0.0957  0.3940  0.7801
  152DOPC   O1120862  12.129   7.837   5.916 -0.1756  0.0079  0.1730
  152DOPC    C120863  12.228   7.735   5.886 -0.2122  0.1777  0.1262
  152DOPC    HA20864  12.179   7.636   5.891 -1.1491  0.6317  0.2554
  152DOPC    HB20865  12.318   7.738   5.950 -0.1298  1.5330 -0.0277
  152DOPC    C220866  12.271   7.752   5.738  0.2539 -0.1951  0.0855
  152DOPC    HS20867  12.319   7.849   5.714 -0.7042  0.6615  1.5135
  152DOPC   O2120868  12.170   7.725   5.641 -0.0373  0.2565  0.1098
  152DOPC   C2120869  12.090   7.825   5.619  0.1732 -0.6131 -0.3344
  152DOPC   O2220870  12.105   7.938   5.657  0.6258 -0.4851 -0.3225
  152DOPC   C2220871  11.964   7.767   5.540 -0.2347  0.1216  0.2133
  152DOPC   H2R20872  11.883   7.844   5.531 -0.4320 -0.1211 -0.0947
  152DOPC   H2S20873  11.926   7.674   5.586  0.5865  0.3319  1.3641
  152DOPC    C320874  12.392   7.653   5.701 -0.5475  0.2855  0.8297
  152DOPC    HX20875  12.351   7.550   5.712  0.3320 -0.0611  0.9590
  152DOPC    HY20876  12.466   7.657   5.785  0.3151 -1.5753  0.2284
  152DOPC   O3120877  12.459   7.663   5.572 -0.4793 -0.5861  0.0694
  152DOPC   C3120878  12.535   7.773   5.570  0.1228  0.0642  0.9798
  152DOPC   O3220879  12.556   7.846   5.665  0.1157  0.1988 -0.5857
  152DOPC   C3220880  12.589   7.785   5.435  0.5365 -0.3205  0.5488
  152DOPC   H2X20881  12.674   7.856   5.431 -0.0807  0.3936 -2.9303
  152DOPC   H2Y20882  12.621   7.686   5.396 -0.0790 -0.5274  0.5540
  152DOPC   C2320883  12.008   7.726   5.402  0.0493  0.9786  0.0805
  152DOPC   H3R20884  12.084   7.645   5.394 -1.2094 -0.3392  0.9123
  152DOPC   H3S20885  12.044   7.814   5.344  1.4375  0.4686  0.1095
  152DOPC   C2420886  11.892   7.654   5.333  0.0870 -0.2382  0.6365
  152DOPC   H4R20887  11.795   7.698   5.367 -0.1718 -0.0310 -0.3414
  152DOPC   H4S20888  11.890   7.547   5.364  0.5202 -1.0499 -1.9527
  152DOPC   C2520889  11.891   7.660   5.179 -0.8555 -0.4829  0.6407
  152DOPC   H5R20890  11.899   7.762   5.136  1.5290 -1.2485 -0.9986
  152DOPC   H5S20891  11.795   7.622   5.139 -0.7594  0.1594 -0.2331
  152DOPC   C2620892  12.013   7.587   5.121 -0.0642  0.1888  0.0734
  152DOPC   H6R20893  12.025   7.487   5.167  0.5472  0.7820  1.2579
  152DOPC   H6S20894  12.107   7.646   5.129  0.4458 -0.2679 -1.8221
  152DOPC   C2720895  11.990   7.569   4.970  0.3194 -0.1807  0.2152
  152DOPC   H7R20896  11.992   7.668   4.921  0.5069  0.4799  1.5032
  152DOPC   H7S20897  11.889   7.526   4.957  0.6560 -0.3385 -2.3665
  152DOPC   C2820898  12.089   7.478   4.903 -0.4041  0.1107 -0.8850
  152DOPC   H8R20899  12.185   7.515   4.945 -2.0807  2.7795  0.9355
  152DOPC   H8S20900  12.084   7.494   4.793 -1.1979 -3.3650 -1.4542
  152DOPC   C2920901  12.065   7.330   4.925  0.5029 -0.3659 -0.0283
  152DOPC   H9R20902  12.064   7.293   5.028  2.3074  0.3198  0.2768
  152DOPC  C21020903  12.032   7.237   4.827 -0.0032  0.6124 -0.5538
  152DOPC  H10R20904  12.021   7.132   4.857 -0.2429  1.3437  2.2613
  152DOPC  C21120905  12.036   7.257   4.679  0.0062  0.4344  0.4300
  152DOPC  H11R20906  12.092   7.348   4.649  1.0684 -0.1535  0.5696
  152DOPC  H11S20907  11.935   7.274   4.637  1.1771  0.2330 -2.7529
  152DOPC  C21220908  12.105   7.136   4.613  0.3826 -0.0450 -0.6235
  152DOPC  H12R20909  12.059   7.035   4.622 -0.5331  0.3730 -0.4500
  152DOPC  H12S20910  12.205   7.129   4.660  0.0909 -0.7516 -0.0871
  152DOPC  C21320911  12.131   7.163   4.460  0.1238 -0.0017 -0.3849
  152DOPC  H13R20912  12.195   7.081   4.422  1.6136 -0.1789  2.3187
  152DOPC  H13S20913  12.201   7.249   4.465  1.4652 -1.0957  0.2652
  152DOPC  C21420914  12.011   7.194   4.375 -0.2802 -0.0884  0.3524
  152DOPC  H14R20915  12.046   7.207   4.270  0.3875 -4.2040 -0.0917
  152DOPC  H14S20916  11.952   7.283   4.404 -2.0829 -0.7698 -1.0286
  152DOPC  C21520917  11.917   7.073   4.359 -0.3845 -0.2977  0.3995
  152DOPC  H15R20918  11.839   7.067   4.438  0.3654  0.3173  1.2011
  152DOPC  H15S20919  11.980   6.982   4.361  1.0701  0.6785  1.2182
  152DOPC  C21620920  11.857   7.079   4.219 -0.7978  0.3528 -0.3253
  152DOPC  H16R20921  11.941   7.060   4.149 -1.1255  1.3681 -1.0118
  152DOPC  H16S20922  11.804   7.176   4.207  0.7094  1.3860  0.9260
  152DOPC  C21720923  11.746   6.973   4.188 -0.1320  0.0478 -0.2258
  152DOPC  H17R20924  11.659   7.015   4.134 -1.2199 -0.2266  1.2679
  152DOPC  H17S20925  11.705   6.931   4.282 -4.8647  2.2215 -1.0569
  152DOPC  C21820926  11.799   6.866   4.092 -0.1282  0.0655 -0.1736
  152DOPC  H18R20927  11.867   6.797   4.146 -0.1147  0.3438  0.1710
  152DOPC  H18S20928  11.832   6.910   3.995 -1.4611  1.5484  0.0071
  152DOPC  H18T20929  11.721   6.792   4.062  0.8150 -0.7933 -0.5697
  152DOPC   C3320930  12.495   7.862   5.343 -0.6274  0.6117 -0.7561
  152DOPC   H3X20931  12.475   7.958   5.395 -0.5841 -0.4865  1.4398
  152DOPC   H3Y20932  12.396   7.812   5.335  1.2842 -3.2372 -4.0985
  152DOPC   C3420933  12.565   7.896   5.203  0.3333  0.3829  0.7770
  152DOPC   H4X20934  12.565   7.797   5.152 -0.8954 -0.2324  1.9104
  152DOPC   H4Y20935  12.667   7.933   5.227  0.1459  0.5436  1.3459
  152DOPC   C3520936  12.493   8.002   5.116  0.2416 -0.4309 -0.3913
  152DOPC   H5X20937  12.555   8.020   5.025  1.4636 -0.8748  0.3362
  152DOPC   H5Y20938  12.477   8.098   5.169 -1.7526 -0.5341 -0.7353
  152DOPC   C3620939  12.359   7.937   5.065  0.2739 -0.0156  0.2322
  152DOPC   H6X20940  12.355   7.848   4.999 -1.1243 -0.5706  1.0192
  152DOPC   H6Y20941  12.297   7.908   5.152  0.4988 -1.7348 -0.1607
  152DOPC   C3720942  12.277   8.043   4.993  0.5699 -0.0274  0.8220
  152DOPC   H7X20943  12.280   8.143   5.042 -1.9950  0.7918 -0.5036
  152DOPC   H7Y20944  12.315   8.064   4.890  1.4081 -3.5861  0.2880
  152DOPC   C3820945  12.129   7.997   4.983  0.1996 -0.5297 -0.0763
  152DOPC   H8X20946  12.090   7.995   5.087  1.3570  0.1969  0.3929
  152DOPC   H8Y20947  12.118   7.891   4.951 -0.9526 -0.0026 -1.5456
  152DOPC   C3920948  12.053   8.095   4.902 -0.4212  0.5075 -0.8008
  152DOPC   H9X20949  12.020   8.187   4.952 -0.5489  2.1109 -3.6387
  152DOPC  C31020950  12.015   8.073   4.773 -0.5598 -0.0190  0.0957
  152DOPC  H10X20951  11.983   8.164   4.720 -1.0904 -0.0867  0.2954
  152DOPC  C31120952  12.054   7.959   4.684  0.0955 -0.2781 -0.4241
  152DOPC  H11X20953  11.967   7.892   4.668  0.6136 -1.1640  0.3597
  152DOPC  H11Y20954  12.136   7.903   4.734  0.1564 -1.2186 -1.5252
  152DOPC  C31220955  12.105   8.007   4.544  0.5153  0.2658  0.1082
  152DOPC  H12X20956  12.029   8.083   4.517 -2.4806 -2.9188 -1.1270
  152DOPC  H12Y20957  12.103   7.924   4.471 -0.5460  1.5776 -1.4252
  152DOPC  C31320958  12.248   8.054   4.558  0.7278 -0.1437 -0.3513
  152DOPC  H13X20959  12.264   8.127   4.639  0.7960  0.1433 -0.6210
  152DOPC  H13Y20960  12.313   7.967   4.583  1.0040  0.4277  0.9784
  152DOPC  C31420961  12.312   8.107   4.423 -0.1233 -0.5069 -0.5646
  152DOPC  H14X20962  12.244   8.095   4.335 -0.5392  2.9808 -0.8707
  152DOPC  H14Y20963  12.325   8.217   4.429  1.5024 -0.6718 -0.6463
  152DOPC  C31520964  12.446   8.037   4.389  0.5042  0.4792 -0.0547
  152DOPC  H15X20965  12.424   7.930   4.370  1.0691  0.0645  1.4618
  152DOPC  H15Y20966  12.515   8.055   4.475 -0.7845  3.7629  0.4417
  152DOPC  C31620967  12.514   8.104   4.268 -0.0736  0.2867 -0.0983
  152DOPC  H16X20968  12.474   8.208   4.266 -0.6445  0.2036  2.7596
  152DOPC  H16Y20969  12.617   8.122   4.306  0.2115 -3.5646  1.4518
  152DOPC  C31720970  12.521   8.033   4.136  0.1111  0.0061  0.0265
  152DOPC  H17X20971  12.419   7.990   4.125  0.3707 -0.6212  0.0097
  152DOPC  H17Y20972  12.554   8.102   4.056 -0.5104  0.7431  0.3944
  152DOPC  C31820973  12.621   7.917   4.137  0.4422 -0.3067 -0.2528
  152DOPC  H18X20974  12.726   7.947   4.157  0.5456  0.6890 -2.0368
  152DOPC  H18Y20975  12.599   7.832   4.205  2.0280 -0.1608  0.4732
  152DOPC  H18Z20976  12.617   7.859   4.041  2.6275 -0.3026 -0.3821
  153DOPC     N20977   3.872   2.703   5.776 -0.0133 -0.0070  0.0897
  153DOPC   C1220978   4.012   2.735   5.730  0.2935  0.1731  0.2581
  153DOPC  H12A20979   4.050   2.647   5.681 -0.2214 -0.3049  0.6944
  153DOPC  H12B20980   4.066   2.749   5.823 -0.0322  1.9259  0.2326
  153DOPC   C1320981   3.784   2.693   5.664 -0.5761 -0.6999 -0.1830
  153DOPC  H13A20982   3.780   2.787   5.612  0.5167 -0.4382  0.1775
  153DOPC  H13B20983   3.809   2.622   5.587  1.1257 -0.9726  0.5760
  153DOPC  H13C20984   3.687   2.662   5.701 -1.1532 -0.2480 -1.2753
  153DOPC   C1420985   3.815   2.816   5.861  0.2839  0.2423  0.6690
  153DOPC  H14A20986   3.872   2.823   5.952  1.8838 -1.5006 -0.1315
  153DOPC  H14B20987   3.824   2.911   5.810 -0.0762 -1.2399 -2.4121
  153DOPC  H14C20988   3.710   2.806   5.886  1.0143 -1.4443  3.5649
  153DOPC   C1520989   3.870   2.580   5.863  0.6010  0.5518  0.0147
  153DOPC  H15A20990   3.780   2.568   5.921  0.8335  2.0914  0.7619
  153DOPC  H15B20991   3.936   2.591   5.948 -0.3243  1.7606  0.6149
  153DOPC  H15C20992   3.888   2.496   5.798 -0.0925  0.7689 -0.4702
  153DOPC   C1120993   4.038   2.865   5.652  0.6295 -0.4745 -0.3203
  153DOPC  H11A20994   4.144   2.864   5.620  0.7743  1.3342  0.0343
  153DOPC  H11B20995   3.969   2.857   5.565 -0.9389 -0.0551  0.8307
  153DOPC     P20996   4.127   3.046   5.827 -0.2936 -0.1299  0.0020
  153DOPC   O1320997   4.162   2.945   5.930  0.2132 -0.1559 -0.5172
  153DOPC   O1420998   4.079   3.183   5.868 -0.1374  0.1551  0.7302
  153DOPC   O1220999   4.013   2.987   5.725 -0.4354 -0.4902 -0.1817
  153DOPC   O1121000   4.234   3.064   5.716  0.2446  0.5350  0.6837
  153DOPC    C121001   4.367   3.033   5.751  0.3492 -0.7278 -0.8341
  153DOPC    HA21002   4.367   2.935   5.804 -3.7930 -0.5096 -0.1536
  153DOPC    HB21003   4.409   3.100   5.830  0.6444 -0.4334 -1.2295
  153DOPC    C221004   4.473   3.035   5.643 -0.6614 -0.4986 -0.0429
  153DOPC    HS21005   4.555   2.984   5.699 -2.8737 -2.3621  1.7040
  153DOPC   O2121006   4.512   3.170   5.605 -0.4328 -0.3535  0.6937
  153DOPC   C2121007   4.636   3.190   5.569 -0.0542 -0.0871  0.9817
  153DOPC   O2221008   4.719   3.100   5.555  0.7434  0.2690 -0.4975
  153DOPC   C2221009   4.666   3.343   5.553 -0.1487 -0.5228  0.1872
  153DOPC   H2R21010   4.676   3.387   5.655 -0.2983 -2.0677  0.9016
  153DOPC   H2S21011   4.585   3.392   5.495 -0.5688 -0.9386  0.4190
  153DOPC    C321012   4.434   2.938   5.527 -0.5355  0.2023  0.5387
  153DOPC    HX21013   4.337   2.976   5.487 -1.5804 -0.7554  2.0814
  153DOPC    HY21014   4.411   2.837   5.566  0.5799  0.1154  1.0139
  153DOPC   O3121015   4.534   2.939   5.416  0.2517  0.2746  0.1154
  153DOPC   C3121016   4.630   2.851   5.428  0.5840 -0.3270 -0.4569
  153DOPC   O3221017   4.629   2.758   5.509 -0.0086 -0.3371 -0.6173
  153DOPC   C3221018   4.742   2.869   5.329  0.0296  0.4267 -0.8002
  153DOPC   H2X21019   4.725   2.943   5.248  2.2698  1.4115 -0.4558
  153DOPC   H2Y21020   4.812   2.922   5.397 -0.8423  1.3360 -0.5883
  153DOPC   C2321021   4.797   3.360   5.475 -0.0280 -0.2989  0.7747
  153DOPC   H3R21022   4.869   3.285   5.514  0.5446 -2.2056 -3.3744
  153DOPC   H3S21023   4.852   3.457   5.484  0.3204 -0.4779  0.6042
  153DOPC   C2421024   4.779   3.315   5.325 -0.1282 -1.0696  0.7565
  153DOPC   H4R21025   4.707   3.386   5.280 -0.8209 -1.4047  1.3040
  153DOPC   H4S21026   4.746   3.211   5.304 -1.2260 -0.7467  0.8399
  153DOPC   C2521027   4.906   3.335   5.233  0.5738  0.4748  0.3260
  153DOPC   H5R21028   4.976   3.252   5.258  1.7735  1.0519 -0.9847
  153DOPC   H5S21029   4.962   3.427   5.257  0.4438  1.2757 -2.1391
  153DOPC   C2621030   4.898   3.328   5.076 -0.7889  0.6781 -0.6589
  153DOPC   H6R21031   5.005   3.347   5.049  0.2458  1.3965  3.3657
  153DOPC   H6S21032   4.827   3.406   5.044 -1.5528  0.8117  1.2826
  153DOPC   C2721033   4.862   3.190   5.021 -0.3126  0.5109 -0.5491
  153DOPC   H7R21034   4.756   3.169   5.047  0.0155  1.8500  2.2124
  153DOPC   H7S21035   4.915   3.107   5.071 -0.8332 -0.3611 -1.4092
  153DOPC   C2821036   4.886   3.183   4.873  0.6259  0.6930 -0.0053
  153DOPC   H8R21037   4.989   3.211   4.840  0.6150  0.5318 -0.1757
  153DOPC   H8S21038   4.808   3.246   4.826  0.7439 -0.7983 -2.3799
  153DOPC   C2921039   4.869   3.030   4.817 -0.3730  0.4262 -0.9102
  153DOPC   H9R21040   4.945   2.958   4.849 -0.2736  0.7508 -0.3963
  153DOPC  C21021041   4.774   2.978   4.736  0.3887  0.1450  0.9169
  153DOPC  H10R21042   4.781   2.869   4.719 -0.9979  0.2574 -0.6274
  153DOPC  C21121043   4.661   3.055   4.680  0.1592 -0.0852  0.2079
  153DOPC  H11R21044   4.633   3.011   4.582 -0.6572 -0.9503  0.8051
  153DOPC  H11S21045   4.680   3.162   4.657  1.4418 -0.6681 -1.6862
  153DOPC  C21221046   4.531   3.033   4.760 -0.2916  0.0853 -0.0904
  153DOPC  H12R21047   4.454   3.083   4.697  1.1414  0.8795 -1.2960
  153DOPC  H12S21048   4.541   3.087   4.856 -0.4883  0.8328 -0.4784
  153DOPC  C21321049   4.490   2.886   4.789 -0.1236 -0.1459 -0.6826
  153DOPC  H13R21050   4.574   2.824   4.826  0.2201 -0.1997 -1.5409
  153DOPC  H13S21051   4.465   2.827   4.698 -0.0100 -4.6304  1.9038
  153DOPC  C21421052   4.365   2.880   4.883 -0.2301 -0.3832 -0.0488
  153DOPC  H14R21053   4.275   2.937   4.850 -2.1046 -2.7970  0.5823
  153DOPC  H14S21054   4.383   2.927   4.982  2.2766 -2.3885  0.5543
  153DOPC  C21521055   4.317   2.734   4.888 -0.5115  0.5586  0.2097
  153DOPC  H15R21056   4.367   2.689   4.799 -0.8776  1.3020 -0.3847
  153DOPC  H15S21057   4.206   2.731   4.879 -0.4674 -0.2217 -0.1470
  153DOPC  C21621058   4.371   2.656   5.008 -0.2880 -0.2806  0.3381
  153DOPC  H16R21059   4.477   2.691   5.007 -1.5435  4.1141 -2.2768
  153DOPC  H16S21060   4.359   2.548   4.987 -0.2909 -0.1818 -0.1638
  153DOPC  C21721061   4.313   2.711   5.134  0.6008  0.4383 -0.2041
  153DOPC  H17R21062   4.206   2.726   5.112  0.7811  2.4879  0.1475
  153DOPC  H17S21063   4.348   2.815   5.153 -0.4770  0.7592  0.0630
  153DOPC  C21821064   4.346   2.634   5.260  0.1878 -0.2393 -0.8068
  153DOPC  H18R21065   4.357   2.525   5.242 -0.8608 -0.7720  1.4871
  153DOPC  H18S21066   4.267   2.649   5.336 -0.2686  2.0162 -1.6625
  153DOPC  H18T21067   4.443   2.663   5.305  0.2407  1.4081 -1.8751
  153DOPC   C3321068   4.802   2.734   5.280  0.5743  0.0741 -0.7068
  153DOPC   H3X21069   4.828   2.666   5.365  1.2005 -1.4080 -2.0275
  153DOPC   H3Y21070   4.904   2.765   5.249  0.4981  0.7551 -0.2872
  153DOPC   C3421071   4.719   2.672   5.158  0.0732  1.0723 -0.1957
  153DOPC   H4X21072   4.715   2.742   5.072  0.2090  0.5251 -0.6582
  153DOPC   H4Y21073   4.616   2.641   5.186 -0.7037  4.6764  1.5225
  153DOPC   C3521074   4.796   2.551   5.096 -0.3356 -0.4841  0.3968
  153DOPC   H5X21075   4.794   2.462   5.162  0.4787 -1.9815 -1.5142
  153DOPC   H5Y21076   4.903   2.581   5.094 -0.2691 -0.7218  0.4331
  153DOPC   C3621077   4.752   2.516   4.953  0.1027 -0.7292  0.2768
  153DOPC   H6X21078   4.649   2.475   4.952  0.1903 -1.0840  1.8725
  153DOPC   H6Y21079   4.751   2.594   4.874  2.9666 -2.2970 -1.4779
  153DOPC   C3721080   4.834   2.396   4.904  0.2191 -0.2097  0.4035
  153DOPC   H7X21081   4.942   2.410   4.926 -0.0417  1.5763  0.7214
  153DOPC   H7Y21082   4.801   2.304   4.956 -2.9549  0.5784  0.0078
  153DOPC   C3821083   4.813   2.363   4.753 -0.1372 -0.1726 -0.0449
  153DOPC   H8X21084   4.706   2.346   4.727 -0.1871 -0.2997  0.2314
  153DOPC   H8Y21085   4.874   2.274   4.726  0.6193  0.6351 -1.0951
  153DOPC   C3921086   4.876   2.470   4.673 -0.0356  0.4101  0.2471
  153DOPC   H9X21087   4.980   2.487   4.705 -0.0915  0.0837  0.6108
  153DOPC  C31021088   4.822   2.548   4.577 -0.5896  0.5797 -0.3411
  153DOPC  H10X21089   4.873   2.635   4.533 -0.3949  0.3919 -0.4909
  153DOPC  C31121090   4.676   2.527   4.535 -0.1419  0.8466  1.0186
  153DOPC  H11X21091   4.628   2.615   4.488  0.3897  0.4176 -0.3947
  153DOPC  H11Y21092   4.618   2.489   4.623 -0.5855 -0.3577  0.2357
  153DOPC  C31221093   4.645   2.421   4.431  0.3399  0.5420 -0.3624
  153DOPC  H12X21094   4.542   2.447   4.398  0.8379  2.2647 -0.6584
  153DOPC  H12Y21095   4.635   2.323   4.481 -3.6337  1.2710  0.6534
  153DOPC  C31321096   4.728   2.417   4.306  0.3302  0.8929 -0.2653
  153DOPC  H13X21097   4.738   2.516   4.255 -0.2655  0.4907 -1.2044
  153DOPC  H13Y21098   4.834   2.389   4.320 -0.0268 -2.3022 -2.7352
  153DOPC  C31421099   4.669   2.316   4.204 -0.1704 -0.1299 -0.4138
  153DOPC  H14X21100   4.663   2.210   4.237 -0.5536 -1.2579 -3.6934
  153DOPC  H14Y21101   4.566   2.354   4.185 -0.1870  0.4696  0.8077
  153DOPC  C31521102   4.740   2.317   4.073  0.4857  0.2044  0.7810
  153DOPC  H15X21103   4.850   2.329   4.087  0.3359  3.0552  0.2551
  153DOPC  H15Y21104   4.702   2.408   4.022 -1.8018 -1.3073 -0.3672
  153DOPC  C31621105   4.716   2.193   3.982  0.6567 -0.0672 -0.1033
  153DOPC  H16X21106   4.795   2.118   4.003 -0.7960 -1.2081  1.5780
  153DOPC  H16Y21107   4.623   2.139   4.012  0.5368  0.4993  0.5591
  153DOPC  C31721108   4.719   2.230   3.833 -0.5441  0.6605 -0.8738
  153DOPC  H17X21109   4.811   2.287   3.805  0.3006 -1.1929 -2.0636
  153DOPC  H17Y21110   4.721   2.138   3.772 -0.0505 -0.8288  1.2806
  153DOPC  C31821111   4.603   2.309   3.788 -0.2428  0.3895  0.1944
  153DOPC  H18X21112   4.516   2.240   3.798  1.6675 -2.4316 -1.1967
  153DOPC  H18Y21113   4.577   2.396   3.851 -0.1854 -0.6760  1.7475
  153DOPC  H18Z21114   4.623   2.338   3.683  3.4431 -0.5229  0.5074
  154DOPC     N21115  11.130   9.429   6.161  0.3671  0.1108  0.1726
  154DOPC   C1221116  11.232   9.362   6.058 -0.8894  0.9142 -0.2509
  154DOPC  H12A21117  11.292   9.441   6.016  0.6584 -0.0233  0.1100
  154DOPC  H12B21118  11.173   9.332   5.972 -1.2734  2.9877 -0.7583
  154DOPC   C1321119  11.195   9.511   6.269 -0.3609 -0.9122 -0.6397
  154DOPC  H13A21120  11.290   9.557   6.245  0.6217 -1.2070  2.2486
  154DOPC  H13B21121  11.128   9.581   6.316 -0.6929 -1.2624 -0.5921
  154DOPC  H13C21122  11.243   9.441   6.336 -0.7806 -1.1431 -0.5790
  154DOPC   C1421123  11.055   9.321   6.232  0.5319  0.4794  0.3109
  154DOPC  H14A21124  11.007   9.354   6.322  0.4514 -2.1537  1.3264
  154DOPC  H14B21125  10.978   9.274   6.172  1.2015 -1.4465  0.8778
  154DOPC  H14C21126  11.118   9.243   6.271  0.5569  0.0435 -0.5663
  154DOPC   C1521127  11.028   9.504   6.084 -0.1243 -0.4781  0.4050
  154DOPC  H15A21128  10.963   9.447   6.020  1.2648 -2.6537  0.8350
  154DOPC  H15B21129  11.066   9.587   6.027 -0.7743  0.6950  1.5990
  154DOPC  H15C21130  10.961   9.559   6.150  0.1666 -0.3678  0.6096
  154DOPC   C1121131  11.325   9.247   6.118  0.2849  0.8781  0.2344
  154DOPC  H11A21132  11.261   9.185   6.185  0.8427  0.9987  0.8760
  154DOPC  H11B21133  11.368   9.182   6.039  1.6943 -0.4140  1.9844
  154DOPC     P21134  11.523   9.413   6.151  0.1729  0.3410  0.2545
  154DOPC   O1321135  11.660   9.374   6.199 -0.1088 -0.4265 -0.1654
  154DOPC   O1421136  11.470   9.544   6.189  0.3568  0.5242  0.0069
  154DOPC   O1221137  11.426   9.304   6.203 -0.0002 -0.4422 -0.7917
  154DOPC   O1121138  11.504   9.396   5.992  0.0739  0.1366 -0.0473
  154DOPC    C121139  11.617   9.323   5.928  0.2157 -0.3510 -0.2349
  154DOPC    HA21140  11.578   9.276   5.834 -1.2410  1.6221 -0.6728
  154DOPC    HB21141  11.663   9.245   5.993 -1.8912 -1.5395 -0.0725
  154DOPC    C221142  11.727   9.419   5.878  0.2160 -0.1059  0.7252
  154DOPC    HS21143  11.756   9.476   5.969 -2.1369  0.9222  0.8807
  154DOPC   O2121144  11.675   9.506   5.771  0.0335 -0.0677 -0.3195
  154DOPC   C2121145  11.737   9.618   5.764  0.3786 -0.2800  0.6511
  154DOPC   O2221146  11.831   9.655   5.837  0.2481  0.3434  0.3491
  154DOPC   C2221147  11.689   9.702   5.643 -0.1933  0.6441 -0.2445
  154DOPC   H2R21148  11.579   9.688   5.640  0.0307 -1.2824 -0.9573
  154DOPC   H2S21149  11.719   9.646   5.552  0.3478  1.0627 -0.3265
  154DOPC    C321150  11.850   9.331   5.832  0.1913  0.2910 -0.1703
  154DOPC    HX21151  11.887   9.268   5.915  0.6566 -0.3899 -0.8751
  154DOPC    HY21152  11.927   9.411   5.820 -0.0732  0.4287 -1.1016
  154DOPC   O3121153  11.827   9.259   5.705  0.0270  0.0533 -0.0986
  154DOPC   C3121154  11.929   9.176   5.674  0.1056  0.1089  0.1367
  154DOPC   O3221155  12.033   9.163   5.730 -1.1845 -0.3099  0.0329
  154DOPC   C3221156  11.906   9.129   5.533  0.3930 -0.7402 -0.2013
  154DOPC   H2X21157  11.994   9.066   5.508  0.1473 -1.6769  1.1728
  154DOPC   H2Y21158  11.814   9.067   5.530  0.8571 -1.4725  0.1490
  154DOPC   C2321159  11.741   9.846   5.649 -0.2187 -0.0480 -0.1412
  154DOPC   H3R21160  11.851   9.852   5.663 -0.0618  1.9197 -1.7391
  154DOPC   H3S21161  11.695   9.889   5.741 -0.9020  0.0176 -0.5072
  154DOPC   C2421162  11.714   9.928   5.526 -0.2004 -0.0096 -0.8192
  154DOPC   H4R21163  11.751  10.032   5.543 -0.7066 -0.0118  0.3881
  154DOPC   H4S21164  11.604   9.940   5.517 -0.2976  0.4059  0.6075
  154DOPC   C2521165  11.771   9.891   5.384  0.6412  0.1412 -0.2264
  154DOPC   H5R21166  11.751   9.979   5.319  3.4783  1.8359  1.0160
  154DOPC   H5S21167  11.715   9.804   5.344 -0.1083  0.3612  0.3270
  154DOPC   C2621168  11.915   9.855   5.377 -0.0999  0.4515 -0.1639
  154DOPC   H6R21169  11.981   9.909   5.448  0.3429 -0.8378  0.4390
  154DOPC   H6S21170  11.947   9.889   5.276 -2.1296  1.2875 -0.5667
  154DOPC   C2721171  11.941   9.698   5.396 -0.0114 -0.5827 -0.4456
  154DOPC   H7R21172  11.859   9.640   5.350 -0.7597  1.0454 -1.2422
  154DOPC   H7S21173  11.922   9.676   5.503  4.0782 -0.8531  0.3754
  154DOPC   C2821174  12.077   9.656   5.349 -0.6247  0.1958 -0.5795
  154DOPC   H8R21175  12.108   9.554   5.380  2.1243  0.0443 -3.3351
  154DOPC   H8S21176  12.148   9.728   5.395 -0.2438 -1.2531  1.1815
  154DOPC   C2921177  12.101   9.666   5.202  0.0862 -0.1250  0.1567
  154DOPC   H9R21178  12.010   9.692   5.146 -0.9098 -2.5533  0.5169
  154DOPC  C21021179  12.214   9.645   5.129 -0.1765 -0.4698 -0.6173
  154DOPC  H10R21180  12.205   9.645   5.020  1.5254 -0.6376 -0.7890
  154DOPC  C21121181  12.344   9.595   5.191 -0.4141 -0.9283 -0.4078
  154DOPC  H11R21182  12.354   9.642   5.292  0.3181 -0.4942 -0.6678
  154DOPC  H11S21183  12.437   9.632   5.143  0.0315  0.2332  1.2623
  154DOPC  C21221184  12.359   9.449   5.184  0.0630 -0.4404 -0.7551
  154DOPC  H12R21185  12.268   9.399   5.224 -0.3651  2.0312  1.6150
  154DOPC  H12S21186  12.446   9.424   5.248  0.2615  1.4045 -0.2756
  154DOPC  C21321187  12.393   9.400   5.045 -0.0354  0.5535  0.7231
  154DOPC  H13R21188  12.457   9.464   4.980 -1.8250  1.8715  0.1688
  154DOPC  H13S21189  12.297   9.410   4.990  0.4889  4.3130  0.2396
  154DOPC  C21421190  12.440   9.254   5.052 -0.2813  0.1873  0.6337
  154DOPC  H14R21191  12.393   9.198   5.135  1.6602 -1.0241  0.9891
  154DOPC  H14S21192  12.545   9.242   5.087 -0.3681 -1.4045  0.4476
  154DOPC  C21521193  12.416   9.156   4.937 -0.9486 -0.0559 -0.4084
  154DOPC  H15R21194  12.485   9.069   4.942 -1.3865 -0.3194  2.0508
  154DOPC  H15S21195  12.443   9.219   4.849  0.1525 -0.5065 -0.4045
  154DOPC  C21621196  12.277   9.102   4.940 -0.1603 -0.1497 -0.5678
  154DOPC  H16R21197  12.199   9.181   4.937 -1.6725 -1.5053  0.8976
  154DOPC  H16S21198  12.250   9.049   5.034 -0.3888  0.5852 -0.2066
  154DOPC  C21721199  12.245   9.010   4.832  0.1373 -0.0284  0.8001
  154DOPC  H17R21200  12.318   8.927   4.847 -0.1540 -0.0233  2.4611
  154DOPC  H17S21201  12.272   9.061   4.737  1.9157 -0.0075  1.2721
  154DOPC  C21821202  12.102   8.967   4.833  0.4406  0.2735 -0.5026
  154DOPC  H18R21203  12.047   9.057   4.800  1.4650  1.4578  0.8724
  154DOPC  H18S21204  12.075   8.926   4.932  0.8217  1.9790  0.3377
  154DOPC  H18T21205  12.103   8.883   4.760  1.3953  0.8537 -1.1904
  154DOPC   C3321206  11.902   9.245   5.435  0.1424 -0.5355  0.3959
  154DOPC   H3X21207  11.943   9.342   5.471  2.3284 -1.1852 -0.1824
  154DOPC   H3Y21208  11.795   9.269   5.417  0.1178 -1.2675 -0.4763
  154DOPC   C3421209  11.953   9.220   5.298  0.6882 -0.3561 -0.0091
  154DOPC   H4X21210  11.920   9.126   5.249  1.3169  0.0768 -1.3235
  154DOPC   H4Y21211  12.064   9.208   5.303  0.5133 -2.4308 -0.1371
  154DOPC   C3521212  11.914   9.332   5.202  0.4550  0.1205 -0.2092
  154DOPC   H5X21213  11.952   9.430   5.239 -2.4264  1.1688  0.2267
  154DOPC   H5Y21214  11.804   9.348   5.209  0.7935  2.1926  1.2280
  154DOPC   C3621215  11.966   9.299   5.055  1.1594  0.3441 -0.3434
  154DOPC   H6X21216  12.076   9.309   5.061  1.1652  0.2848 -0.3670
  154DOPC   H6Y21217  11.958   9.191   5.030 -2.2693  0.3656  0.1374
  154DOPC   C3721218  11.904   9.395   4.949  0.1818  0.9298 -0.2648
  154DOPC   H7X21219  11.793   9.393   4.955  0.1986  2.4811  1.1306
  154DOPC   H7Y21220  11.942   9.496   4.974  0.2322  1.0713 -0.9040
  154DOPC   C3821221  11.941   9.362   4.795 -0.1641 -0.5556 -0.6505
  154DOPC   H8X21222  11.927   9.252   4.785 -1.0449 -0.3696 -1.6202
  154DOPC   H8Y21223  12.050   9.376   4.781 -0.3254 -0.6866 -2.2019
  154DOPC   C3921224  11.870   9.439   4.686  0.2367  0.9257 -0.7970
  154DOPC   H9X21225  11.877   9.548   4.697 -1.7042  1.0356 -0.1410
  154DOPC  C31021226  11.785   9.389   4.591 -0.2532  0.0299 -0.1855
  154DOPC  H10X21227  11.741   9.459   4.519 -1.1208  1.6232  1.7831
  154DOPC  C31121228  11.761   9.250   4.554 -0.2963  0.5493 -0.4756
  154DOPC  H11X21229  11.691   9.252   4.468 -0.8542  0.4969 -0.0320
  154DOPC  H11Y21230  11.721   9.194   4.641  0.3458  1.0025  0.1231
  154DOPC  C31221231  11.880   9.168   4.507  0.1777  0.0124  0.0797
  154DOPC  H12X21232  11.959   9.179   4.585  1.1695  0.2589 -0.9233
  154DOPC  H12Y21233  11.921   9.211   4.413 -1.6560  0.1458 -0.6829
  154DOPC  C31321234  11.856   9.019   4.478 -0.2707 -0.2348  0.0425
  154DOPC  H13X21235  11.819   8.966   4.568 -0.4930 -0.2536 -0.0602
  154DOPC  H13Y21236  11.783   9.001   4.397  0.9157 -0.6433 -0.9666
  154DOPC  C31421237  11.992   8.952   4.438  0.3474  0.2019 -0.6564
  154DOPC  H14X21238  12.027   8.979   4.336  1.9705  0.0105 -0.1763
  154DOPC  H14Y21239  12.058   9.005   4.510 -1.2898  3.9641 -1.6344
  154DOPC  C31521240  12.000   8.809   4.470 -0.0555 -0.0056 -0.3427
  154DOPC  H15X21241  11.946   8.784   4.564 -0.3681  0.8040 -0.2968
  154DOPC  H15Y21242  12.107   8.782   4.471  0.2210  1.0518 -0.1223
  154DOPC  C31621243  11.925   8.719   4.368  0.2179  0.2265  0.1764
  154DOPC  H16X21244  11.816   8.719   4.390 -0.3138 -0.4260 -2.2063
  154DOPC  H16Y21245  11.933   8.749   4.262 -1.0514 -0.5639 -0.1710
  154DOPC  C31721246  11.972   8.574   4.382 -0.0646 -0.5912 -0.2182
  154DOPC  H17X21247  12.068   8.564   4.328 -0.0686  1.7138 -0.7567
  154DOPC  H17Y21248  11.997   8.557   4.489  3.1824 -2.9158 -1.1896
  154DOPC  C31821249  11.873   8.469   4.328  0.6537  0.0460  0.1170
  154DOPC  H18X21250  11.766   8.502   4.330  0.8195  0.6999 -0.9663
  154DOPC  H18Y21251  11.879   8.456   4.218  0.0697 -1.7186  0.2604
  154DOPC  H18Z21252  11.881   8.376   4.388 -0.5983 -0.1946 -0.0499
  155DOPC     N21253   5.378   2.686   6.085  0.2468 -0.2801 -0.6446
  155DOPC   C1221254   5.409   2.766   5.959  0.5872  0.2327 -0.2391
  155DOPC  H12A21255   5.462   2.701   5.890  0.6135  0.2967 -0.2805
  155DOPC  H12B21256   5.472   2.853   5.969 -0.7668  1.3449 -1.1453
  155DOPC   C1321257   5.505   2.656   6.164 -0.1365  0.5924 -0.3584
  155DOPC  H13A21258   5.565   2.746   6.168  2.2133 -0.9064  0.0212
  155DOPC  H13B21259   5.481   2.646   6.269 -1.0950  1.5727 -0.4700
  155DOPC  H13C21260   5.549   2.560   6.140 -2.2347 -0.4558 -0.1798
  155DOPC   C1421261   5.308   2.557   6.055 -0.9760  0.7308 -0.2976
  155DOPC  H14A21262   5.218   2.558   5.996 -0.3306 -2.3421 -1.5659
  155DOPC  H14B21263   5.369   2.494   5.991 -0.3884  1.3611 -0.3768
  155DOPC  H14C21264   5.271   2.511   6.145  0.7990  0.6596  0.4375
  155DOPC   C1521265   5.288   2.767   6.177 -0.0879 -0.9665  0.8133
  155DOPC  H15A21266   5.349   2.842   6.224  1.8352 -1.8153 -0.2333
  155DOPC  H15B21267   5.242   2.704   6.252 -1.9024 -1.3655 -0.5787
  155DOPC  H15C21268   5.201   2.801   6.123 -0.3443 -1.5701  0.8366
  155DOPC   C1121269   5.287   2.828   5.879 -0.9619  0.4003  0.3988
  155DOPC  H11A21270   5.327   2.844   5.776  0.9019 -2.0699  0.6360
  155DOPC  H11B21271   5.219   2.740   5.878  0.6250 -0.9068  1.7600
  155DOPC     P21272   5.084   2.964   5.960  0.1689  0.1809  0.0106
  155DOPC   O1321273   5.071   3.089   6.034  0.1527 -0.3680  0.1760
  155DOPC   O1421274   5.033   2.843   6.021 -0.1560  0.2601 -0.0740
  155DOPC   O1221275   5.233   2.944   5.941 -0.3869  0.6619 -0.1976
  155DOPC   O1121276   5.024   2.968   5.808 -0.4877 -0.1986  0.1162
  155DOPC    C121277   5.106   3.057   5.726  0.4278 -0.2204 -0.3716
  155DOPC    HA21278   5.214   3.056   5.749  0.2430 -1.2121  0.5316
  155DOPC    HB21279   5.072   3.160   5.746 -0.6946 -0.2574 -1.8603
  155DOPC    C221280   5.094   3.019   5.580 -0.0925  0.1742 -0.0162
  155DOPC    HS21281   4.988   3.014   5.549  0.1908  1.3552 -1.3013
  155DOPC   O2121282   5.171   2.897   5.555  0.4336  0.6178  0.4599
  155DOPC   C2121283   5.095   2.786   5.544  0.0079 -0.4926  0.5469
  155DOPC   O2221284   4.977   2.779   5.553  0.2391  0.2732 -0.4016
  155DOPC   C2221285   5.195   2.671   5.539  0.4488 -1.0920  0.1473
  155DOPC   H2R21286   5.166   2.605   5.624  0.1901  1.5209  2.2400
  155DOPC   H2S21287   5.295   2.712   5.565 -0.2229  0.5879  0.2380
  155DOPC    C321288   5.145   3.134   5.494 -0.0987  0.6775 -0.1496
  155DOPC    HX21289   5.246   3.165   5.529 -0.2330  1.2734 -0.2765
  155DOPC    HY21290   5.069   3.215   5.500 -0.3154  0.4425  0.3575
  155DOPC   O3121291   5.159   3.091   5.353  0.4510 -0.1542  0.0838
  155DOPC   C3121292   5.233   3.176   5.281 -0.8820  0.4196 -0.4298
  155DOPC   O3221293   5.284   3.280   5.320  0.1300  0.4183 -0.0158
  155DOPC   C3221294   5.267   3.117   5.144  0.0529 -0.2543 -0.0205
  155DOPC   H2X21295   5.288   3.009   5.153  3.0856 -0.0049 -2.2692
  155DOPC   H2Y21296   5.181   3.140   5.077  0.3139 -0.7623 -0.5386
  155DOPC   C2321297   5.187   2.604   5.401 -0.6522 -0.4013 -0.3998
  155DOPC   H3R21298   5.079   2.586   5.382 -0.5262 -0.2426 -1.2901
  155DOPC   H3S21299   5.233   2.502   5.399 -0.1451 -0.1760 -1.7079
  155DOPC   C2421300   5.254   2.687   5.284 -0.3372  0.5479  0.6117
  155DOPC   H4R21301   5.363   2.666   5.290 -0.0331  1.8701 -0.0005
  155DOPC   H4S21302   5.252   2.796   5.303  0.1460  0.5731  0.5202
  155DOPC   C2521303   5.195   2.652   5.143 -0.5575 -0.4903  0.2856
  155DOPC   H5R21304   5.086   2.676   5.135 -0.4707 -0.6689 -2.4476
  155DOPC   H5S21305   5.198   2.542   5.137  0.8449 -0.4160 -0.9681
  155DOPC   C2621306   5.272   2.713   5.015 -0.6026  0.4923  0.3191
  155DOPC   H6R21307   5.379   2.689   5.035 -1.2061 -2.1364  0.7348
  155DOPC   H6S21308   5.247   2.821   5.014 -0.0085  0.7346  3.3841
  155DOPC   C2721309   5.230   2.651   4.885 -0.5816 -0.5773  0.1133
  155DOPC   H7R21310   5.120   2.665   4.873 -0.4500 -0.2462 -0.7922
  155DOPC   H7S21311   5.243   2.542   4.874 -0.9877 -0.3999 -3.1920
  155DOPC   C2821312   5.304   2.724   4.767  0.0108 -0.2376  0.5471
  155DOPC   H8R21313   5.410   2.740   4.795 -0.0969  0.1584  0.7458
  155DOPC   H8S21314   5.264   2.828   4.756 -0.7468 -0.3368  2.0691
  155DOPC   C2921315   5.277   2.648   4.638  0.3244 -0.1402 -0.4069
  155DOPC   H9R21316   5.175   2.608   4.629 -0.7433  2.5566 -1.5594
  155DOPC  C21021317   5.370   2.614   4.548 -0.8571  0.2331 -0.3888
  155DOPC  H10R21318   5.350   2.555   4.458  1.0027  0.6421 -1.1200
  155DOPC  C21121319   5.516   2.666   4.569 -0.3601 -0.1755  0.1338
  155DOPC  H11R21320   5.588   2.613   4.634  0.6608  1.4609  0.3955
  155DOPC  H11S21321   5.520   2.767   4.616  0.9765 -0.1070 -0.0840
  155DOPC  C21221322   5.592   2.671   4.432 -1.0296  0.4295  0.7415
  155DOPC  H12R21323   5.675   2.744   4.444 -0.3116 -0.1422 -0.5331
  155DOPC  H12S21324   5.531   2.713   4.349  0.0583  0.0395 -0.2832
  155DOPC  C21321325   5.644   2.534   4.386  0.1791 -0.5382  0.1724
  155DOPC  H13R21326   5.551   2.480   4.359 -0.4982  0.3909  0.6332
  155DOPC  H13S21327   5.708   2.481   4.460  1.2418 -2.7275 -2.1444
  155DOPC  C21421328   5.728   2.539   4.247  0.0888  0.7315 -0.3447
  155DOPC  H14R21329   5.662   2.590   4.175 -0.6729  3.4839  2.1157
  155DOPC  H14S21330   5.755   2.432   4.230 -0.0166  0.8969 -1.6264
  155DOPC  C21521331   5.858   2.620   4.268 -0.5806 -0.5388  0.1523
  155DOPC  H15R21332   5.886   2.614   4.375  1.2283  0.8800 -0.1828
  155DOPC  H15S21333   5.835   2.728   4.250 -1.5082 -0.8159 -0.3725
  155DOPC  C21621334   5.973   2.570   4.175 -0.0252  0.1634 -0.0726
  155DOPC  H16R21335   5.933   2.584   4.072 -2.4944  1.8290  1.0175
  155DOPC  H16S21336   6.003   2.464   4.187  0.9836  0.4758  0.3213
  155DOPC  C21721337   6.107   2.647   4.189  0.2262  0.3551  0.3228
  155DOPC  H17R21338   6.165   2.626   4.281  2.8322  1.8475 -0.8600
  155DOPC  H17S21339   6.087   2.756   4.188 -1.5534  0.0546 -1.0230
  155DOPC  C21821340   6.190   2.623   4.068 -0.5497 -0.2644 -0.1041
  155DOPC  H18R21341   6.201   2.512   4.059  1.9805 -0.3264  2.4267
  155DOPC  H18S21342   6.289   2.667   4.089 -0.0426 -0.8043 -1.2968
  155DOPC  H18T21343   6.148   2.673   3.978  0.8645 -0.6060 -0.9768
  155DOPC   C3321344   5.391   3.169   5.067 -0.1524  0.3127  0.6372
  155DOPC   H3X21345   5.481   3.160   5.132  0.7147 -2.1635 -0.7661
  155DOPC   H3Y21346   5.367   3.272   5.031 -2.3850 -0.7238 -1.1399
  155DOPC   C3421347   5.398   3.099   4.931 -0.7448 -0.4152  0.2608
  155DOPC   H4X21348   5.301   3.109   4.877 -1.4564  3.9863  1.9391
  155DOPC   H4Y21349   5.414   2.990   4.944 -1.5504 -0.5497  0.1843
  155DOPC   C3521350   5.507   3.156   4.834 -0.2827 -0.3140 -0.3699
  155DOPC   H5X21351   5.606   3.131   4.878 -0.5229 -0.4425  0.0991
  155DOPC   H5Y21352   5.489   3.264   4.816 -0.9897 -0.9206 -4.0333
  155DOPC   C3621353   5.507   3.092   4.696 -0.0836  0.1700 -0.4619
  155DOPC   H6X21354   5.541   2.987   4.704 -1.4991 -0.2190  0.7823
  155DOPC   H6Y21355   5.412   3.095   4.639  0.2764  0.3997 -1.0522
  155DOPC   C3721356   5.619   3.160   4.602  0.6221  0.3951 -0.0413
  155DOPC   H7X21357   5.601   3.269   4.607  0.8089  0.5541 -2.0074
  155DOPC   H7Y21358   5.725   3.154   4.634  1.1114  0.0896 -1.6279
  155DOPC   C3821359   5.603   3.118   4.457  0.7551 -0.2858  0.0652
  155DOPC   H8X21360   5.496   3.138   4.433  1.0205  0.5053 -0.4694
  155DOPC   H8Y21361   5.630   3.011   4.441 -0.4370 -0.5092 -0.6130
  155DOPC   C3921362   5.691   3.205   4.364  0.0274  0.6832  0.1558
  155DOPC   H9X21363   5.636   3.295   4.333 -0.3226  0.5663  0.4412
  155DOPC  C31021364   5.812   3.183   4.313  0.5105  0.3920  0.3934
  155DOPC  H10X21365   5.858   3.251   4.239  1.6230 -2.2844 -1.5597
  155DOPC  C31121366   5.896   3.056   4.340  0.5943 -0.2085  0.2464
  155DOPC  H11X21367   5.912   2.988   4.253  2.8149  1.9323 -1.1388
  155DOPC  H11Y21368   5.848   2.995   4.420  2.5904 -1.9926  0.1876
  155DOPC  C31221369   6.028   3.091   4.403 -0.5326 -0.3463  0.2903
  155DOPC  H12X21370   6.028   3.165   4.486 -1.1269 -1.9195  1.7635
  155DOPC  H12Y21371   6.087   3.135   4.320 -0.2816 -0.9445  0.1481
  155DOPC  C31321372   6.114   2.968   4.444  0.0715  0.5548 -0.0302
  155DOPC  H13X21373   6.094   2.883   4.376 -0.2424 -0.9570  1.8362
  155DOPC  H13Y21374   6.221   2.997   4.458  0.3316 -0.2271 -0.3195
  155DOPC  C31421375   6.071   2.927   4.584  0.0942  0.3992 -0.1243
  155DOPC  H14X21376   6.077   3.024   4.639 -1.4247  0.9492 -0.8529
  155DOPC  H14Y21377   5.962   2.904   4.585 -0.0343  0.9989  0.5945
  155DOPC  C31521378   6.140   2.816   4.656  0.2756 -0.3631 -0.1994
  155DOPC  H15X21379   6.101   2.815   4.760  0.9700  1.1009  0.1009
  155DOPC  H15Y21380   6.245   2.853   4.652 -0.4225  1.6687 -0.9625
  155DOPC  C31621381   6.123   2.676   4.607 -0.1159  0.4484  0.0124
  155DOPC  H16X21382   6.020   2.640   4.630  0.3444 -1.1086 -0.2092
  155DOPC  H16Y21383   6.141   2.680   4.498  0.8271  0.0742  0.1453
  155DOPC  C31721384   6.203   2.563   4.677 -0.3487  1.0841 -0.1403
  155DOPC  H17X21385   6.311   2.574   4.652  0.0555  0.5113  1.2412
  155DOPC  H17Y21386   6.198   2.580   4.787  0.5754 -0.0969  0.1045
  155DOPC  C31821387   6.153   2.417   4.652  0.1799 -1.1296 -0.6917
  155DOPC  H18X21388   6.171   2.396   4.544  2.3265  2.4462 -1.1639
  155DOPC  H18Y21389   6.208   2.341   4.711 -1.8972 -2.2096 -0.0413
  155DOPC  H18Z21390   6.046   2.406   4.679  0.0208 -1.7445 -1.5291
  156DOPC     N21391   9.599   2.211   6.961 -0.4191  0.4198  0.0025
  156DOPC   C1221392   9.630   2.235   6.816  0.1587  0.0011  1.2430
  156DOPC  H12A21393   9.620   2.141   6.764 -1.5354  0.6373  0.3482
  156DOPC  H12B21394   9.728   2.279   6.816 -1.0263  2.9137  1.9588
  156DOPC   C1321395   9.463   2.153   6.980  0.0423  0.1507 -0.0221
  156DOPC  H13A21396   9.442   2.126   7.082  0.1289 -0.3900 -0.1435
  156DOPC  H13B21397   9.386   2.219   6.942  0.2150 -0.6150 -1.7905
  156DOPC  H13C21398   9.457   2.052   6.941 -1.7095 -0.2385  1.1109
  156DOPC   C1421399   9.598   2.345   7.029 -0.2336 -0.2882 -0.2846
  156DOPC  H14A21400   9.504   2.393   7.007 -0.4332 -0.4337  0.2275
  156DOPC  H14B21401   9.589   2.348   7.137 -0.9282 -0.0720 -0.3429
  156DOPC  H14C21402   9.680   2.401   6.988 -0.5848  0.6493  0.2648
  156DOPC   C1521403   9.705   2.118   7.019 -0.4059 -0.0490  0.1852
  156DOPC  H15A21404   9.725   2.131   7.124 -1.1882  0.1672  0.3193
  156DOPC  H15B21405   9.801   2.123   6.969  0.7276 -0.0499  2.2581
  156DOPC  H15C21406   9.670   2.016   7.029 -0.0265 -0.1306  0.7205
  156DOPC   C1121407   9.544   2.346   6.740  0.3095  0.2821 -0.3144
  156DOPC  H11A21408   9.557   2.335   6.630  1.0447  0.9351 -0.2974
  156DOPC  H11B21409   9.436   2.339   6.764  0.2460 -0.3659 -0.7596
  156DOPC     P21410   9.709   2.549   6.719 -0.1293  0.0317  0.3089
  156DOPC   O1321411   9.818   2.533   6.811 -0.2698  0.3865 -0.3547
  156DOPC   O1421412   9.668   2.688   6.684  0.0911 -0.0457  0.7913
  156DOPC   O1221413   9.585   2.474   6.766 -0.3415 -0.0374 -0.1026
  156DOPC   O1121414   9.740   2.491   6.580  0.0224  0.0141 -0.0272
  156DOPC    C121415   9.852   2.416   6.541 -0.3262  0.6634  0.0547
  156DOPC    HA21416   9.867   2.331   6.611  0.5199  0.0958 -0.7804
  156DOPC    HB21417   9.945   2.478   6.539 -0.0867  0.3370  0.8149
  156DOPC    C221418   9.832   2.353   6.399 -0.2657  0.4288 -0.2607
  156DOPC    HS21419   9.901   2.266   6.396 -0.7278  0.0828 -2.4259
  156DOPC   O2121420   9.871   2.451   6.297  0.2641  0.4677 -0.4051
  156DOPC   C2121421   9.923   2.412   6.183  0.1456 -0.3503 -0.2292
  156DOPC   O2221422   9.956   2.294   6.157 -0.6356  0.2342  0.0863
  156DOPC   C2221423   9.955   2.528   6.093 -0.4864  0.2012 -0.1089
  156DOPC   H2R21424  10.064   2.550   6.100 -0.5382  0.3743  0.1535
  156DOPC   H2S21425   9.892   2.612   6.128  1.1812  1.7017 -0.5733
  156DOPC    C321426   9.688   2.292   6.374  0.4769 -0.8617  0.1110
  156DOPC    HX21427   9.612   2.373   6.368  0.8160 -0.4637  1.0074
  156DOPC    HY21428   9.655   2.230   6.461  0.2451 -0.2618  0.4594
  156DOPC   O3121429   9.688   2.198   6.265 -0.1355 -0.3434  0.4959
  156DOPC   C3121430   9.633   2.250   6.149  0.5109 -0.8760 -0.3627
  156DOPC   O3221431   9.612   2.371   6.128  0.0118 -0.7507 -0.2075
  156DOPC   C3221432   9.615   2.141   6.046  0.0814 -0.0249  0.3368
  156DOPC   H2X21433   9.643   2.040   6.082  2.2480  0.1374 -0.7072
  156DOPC   H2Y21434   9.505   2.136   6.037 -0.1603  0.6237  2.4356
  156DOPC   C2321435   9.913   2.502   5.952  0.0453  0.0035 -0.7383
  156DOPC   H3R21436   9.806   2.474   5.947 -0.4779  0.8936  3.0000
  156DOPC   H3S21437   9.969   2.410   5.922 -0.8593 -0.7157 -0.2743
  156DOPC   C2421438   9.948   2.620   5.853  0.3588  0.7759 -0.0570
  156DOPC   H4R21439  10.047   2.656   5.887  1.4769 -1.7881 -0.3465
  156DOPC   H4S21440   9.871   2.698   5.873 -0.5868 -0.4112  1.1910
  156DOPC   C2521441   9.950   2.570   5.706 -0.2698 -0.8558 -0.6010
  156DOPC   H5R21442  10.048   2.530   5.675 -0.9857 -0.9348 -2.9752
  156DOPC   H5S21443   9.932   2.665   5.651 -2.8805 -0.5659  0.5558
  156DOPC   C2621444   9.841   2.467   5.664 -0.7974 -0.5342 -0.3907
  156DOPC   H6R21445   9.750   2.485   5.725  0.5660  0.5972  1.3920
  156DOPC   H6S21446   9.863   2.369   5.712 -1.3062  0.2596  1.5662
  156DOPC   C2721447   9.799   2.464   5.516  0.0821  0.2497  0.3077
  156DOPC   H7R21448   9.747   2.556   5.483 -2.1450 -0.9729  0.2089
  156DOPC   H7S21449   9.723   2.383   5.506 -0.9862  1.2969 -0.2176
  156DOPC   C2821450   9.898   2.422   5.411  0.3431  0.3915 -0.8412
  156DOPC   H8R21451   9.990   2.485   5.411  3.0110 -3.1914 -0.0884
  156DOPC   H8S21452   9.853   2.435   5.311 -2.3873  0.2993  0.2977
  156DOPC   C2921453   9.938   2.283   5.445 -0.6889 -0.1594  0.2098
  156DOPC   H9R21454   9.974   2.271   5.548  0.1242  2.6285  0.3333
  156DOPC  C21021455   9.935   2.177   5.361 -0.1882  0.2583  0.7112
  156DOPC  H10R21456   9.981   2.085   5.400 -1.1909  0.4243  2.3879
  156DOPC  C21121457   9.889   2.178   5.219 -0.0295  0.4911 -0.6057
  156DOPC  H11R21458   9.818   2.260   5.198 -0.5466  0.6650  1.5518
  156DOPC  H11S21459   9.829   2.089   5.191  0.0745  0.7226 -1.6044
  156DOPC  C21221460  10.013   2.186   5.127 -0.5350 -0.3193 -0.8842
  156DOPC  H12R21461  10.085   2.110   5.164  1.8486  2.1709 -0.0416
  156DOPC  H12S21462  10.060   2.286   5.120  0.9419 -1.0564 -1.8616
  156DOPC  C21321463   9.985   2.149   4.975  0.9347 -0.7170 -0.3054
  156DOPC  H13R21464   9.955   2.042   4.976 -0.0663 -0.4545  1.1349
  156DOPC  H13S21465  10.079   2.160   4.917 -0.3602  0.0665 -2.3682
  156DOPC  C21421466   9.866   2.224   4.901  0.2098  0.2904 -0.2720
  156DOPC  H14R21467   9.779   2.189   4.960  1.1709  0.4379  1.2662
  156DOPC  H14S21468   9.851   2.185   4.798 -1.0113 -0.5971  0.2229
  156DOPC  C21521469   9.869   2.383   4.916 -0.1980  0.8126 -0.4887
  156DOPC  H15R21470   9.955   2.429   4.862  0.8286  0.0434  0.4594
  156DOPC  H15S21471   9.868   2.414   5.022 -1.5404  0.2730 -0.3247
  156DOPC  C21621472   9.744   2.438   4.846  0.2586  0.1821 -0.2896
  156DOPC  H16R21473   9.670   2.417   4.926  0.6512 -0.9546 -0.2001
  156DOPC  H16S21474   9.720   2.376   4.757 -0.5994 -1.1305  0.8043
  156DOPC  C21721475   9.741   2.591   4.818  0.3916  0.1429  0.3533
  156DOPC  H17R21476   9.821   2.613   4.744 -0.0014  1.3048  0.2605
  156DOPC  H17S21477   9.771   2.644   4.911 -1.5031 -2.8055  2.8589
  156DOPC  C21821478   9.604   2.653   4.778  0.8433  0.3336  0.5958
  156DOPC  H18R21479   9.565   2.598   4.690  1.0042 -0.3693  0.9525
  156DOPC  H18S21480   9.628   2.761   4.772  1.7297  0.2057  1.5747
  156DOPC  H18T21481   9.529   2.638   4.859 -2.2113  0.9592 -1.9189
  156DOPC   C3321482   9.669   2.160   5.902 -0.5189 -0.2656 -0.9104
  156DOPC   H3X21483   9.777   2.186   5.913 -0.4446 -0.7686 -0.4086
  156DOPC   H3Y21484   9.623   2.241   5.842 -0.5668  1.2138  1.0039
  156DOPC   C3421485   9.666   2.023   5.841 -0.0495  1.0032  0.3781
  156DOPC   H4X21486   9.568   1.971   5.845 -0.0364  0.9677  0.2482
  156DOPC   H4Y21487   9.739   1.951   5.886  0.8744  1.2720 -0.6459
  156DOPC   C3521488   9.702   2.011   5.690 -0.0913 -0.3728  0.0356
  156DOPC   H5X21489   9.725   1.906   5.662  1.1889 -0.4093  1.1415
  156DOPC   H5Y21490   9.796   2.067   5.669 -0.3556  0.9430  2.0817
  156DOPC   C3621491   9.596   2.076   5.593  0.2410  0.0195 -0.8163
  156DOPC   H6X21492   9.565   2.164   5.652 -1.0966 -1.5037  0.8566
  156DOPC   H6Y21493   9.641   2.116   5.499  0.6761 -0.9200 -1.0189
  156DOPC   C3721494   9.485   1.981   5.549 -0.3461  0.4656 -0.4802
  156DOPC   H7X21495   9.536   1.891   5.507  1.1204  0.8521  0.4030
  156DOPC   H7Y21496   9.425   1.941   5.633 -0.9657  1.0672 -0.6253
  156DOPC   C3821497   9.395   2.052   5.436  0.6288 -0.2818  0.3455
  156DOPC   H8X21498   9.322   1.972   5.411 -0.6988  0.8642  0.4360
  156DOPC   H8Y21499   9.453   2.088   5.348  3.0126 -1.2511  1.4027
  156DOPC   C3921500   9.308   2.162   5.488  0.3982 -0.0408  0.4948
  156DOPC   H9X21501   9.255   2.139   5.582  0.9931  1.8809  1.3313
  156DOPC  C31021502   9.297   2.281   5.427  0.6242 -0.0771 -1.2712
  156DOPC  H10X21503   9.230   2.349   5.482  0.0734 -2.1971  0.8301
  156DOPC  C31121504   9.372   2.335   5.312  0.1060 -0.0138  0.1061
  156DOPC  H11X21505   9.310   2.334   5.220 -1.5256  0.8172  1.1442
  156DOPC  H11Y21506   9.465   2.277   5.292  0.1805 -0.0191  0.4597
  156DOPC  C31221507   9.413   2.477   5.354 -0.3660  0.1630  0.0346
  156DOPC  H12X21508   9.490   2.461   5.432 -2.0038 -1.4200  1.4042
  156DOPC  H12Y21509   9.326   2.530   5.397 -1.2698 -1.7231  0.6367
  156DOPC  C31321510   9.456   2.559   5.228  0.1500 -0.1875 -0.4490
  156DOPC  H13X21511   9.511   2.494   5.157 -0.0277 -0.3928 -0.3995
  156DOPC  H13Y21512   9.363   2.588   5.173  0.3617 -3.5170 -2.9015
  156DOPC  C31421513   9.551   2.672   5.263 -0.3151  0.1795  0.4689
  156DOPC  H14X21514   9.503   2.753   5.323  0.0381 -0.1618  1.2314
  156DOPC  H14Y21515   9.624   2.626   5.333 -0.1265 -3.4005 -1.8552
  156DOPC  C31521516   9.619   2.740   5.141 -0.7622  0.1385  0.4242
  156DOPC  H15X21517   9.537   2.761   5.070  1.0004  1.3994 -1.3452
  156DOPC  H15Y21518   9.674   2.661   5.086 -0.0455  0.1791  1.0500
  156DOPC  C31621519   9.691   2.869   5.179 -0.0514 -0.0256 -0.0859
  156DOPC  H16X21520   9.688   2.936   5.091 -2.2009  0.2956  0.1923
  156DOPC  H16Y21521   9.647   2.927   5.263 -1.7092 -0.9235 -0.2949
  156DOPC  C31721522   9.842   2.838   5.203 -0.0014  0.3219  0.1079
  156DOPC  H17X21523   9.852   2.814   5.311 -0.8009  2.8602  0.8285
  156DOPC  H17Y21524   9.862   2.742   5.150  0.1742 -0.6662  1.8945
  156DOPC  C31821525   9.926   2.947   5.132  0.0422 -0.2516 -0.4903
  156DOPC  H18X21526  10.033   2.938   5.158  0.3669  0.9894 -1.3395
  156DOPC  H18Y21527   9.934   2.922   5.024  2.0259 -2.5004  0.0953
  156DOPC  H18Z21528   9.904   3.055   5.142 -0.4671 -0.2647 -1.4242
  157DOPC     N21529  11.404   7.345   5.696  0.2960 -0.0049  0.3421
  157DOPC   C1221530  11.488   7.268   5.801 -0.1310  0.4281  0.2882
  157DOPC  H12A21531  11.545   7.196   5.743 -0.0681  0.6490  0.0750
  157DOPC  H12B21532  11.421   7.218   5.870  0.7813  0.5792  1.3159
  157DOPC   C1321533  11.366   7.479   5.750  0.4243  0.1294 -0.4935
  157DOPC  H13A21534  11.454   7.541   5.757  1.9891 -1.8995 -1.0725
  157DOPC  H13B21535  11.285   7.530   5.700 -3.1438 -2.8511  1.6274
  157DOPC  H13C21536  11.330   7.463   5.851  0.9898 -0.5849 -0.4000
  157DOPC   C1421537  11.281   7.264   5.664  0.6401  0.4073 -0.1529
  157DOPC  H14A21538  11.233   7.305   5.576 -0.8964  0.6075  0.7315
  157DOPC  H14B21539  11.304   7.160   5.647  0.6490  0.5146 -0.8133
  157DOPC  H14C21540  11.215   7.262   5.750  1.5847 -0.7982  0.5796
  157DOPC   C1521541  11.478   7.354   5.573 -0.6521 -0.1623  0.4182
  157DOPC  H15A21542  11.575   7.399   5.587  0.6241 -2.9983  1.6094
  157DOPC  H15B21543  11.429   7.423   5.505  0.1348 -1.1896 -1.2730
  157DOPC  H15C21544  11.494   7.261   5.520  0.0579  1.0194 -1.5828
  157DOPC   C1121545  11.590   7.343   5.884  0.9916 -0.1651  0.4304
  157DOPC  H11A21546  11.534   7.414   5.950 -0.9851  0.9174 -2.1994
  157DOPC  H11B21547  11.630   7.272   5.958  1.1389  1.8635  2.3892
  157DOPC     P21548  11.724   7.558   5.811 -0.2831  0.1103 -0.3628
  157DOPC   O1321549  11.869   7.566   5.769 -0.0949 -0.2540 -0.4649
  157DOPC   O1421550  11.698   7.603   5.951  0.1785  0.3680  0.2809
  157DOPC   O1221551  11.686   7.407   5.800  0.2120 -0.2463 -0.1059
  157DOPC   O1121552  11.622   7.627   5.705 -0.2458  0.5650  0.5671
  157DOPC    C121553  11.621   7.766   5.682  0.2889 -0.5515 -0.6078
  157DOPC    HA21554  11.712   7.793   5.624  1.1485 -0.8128  0.5832
  157DOPC    HB21555  11.623   7.824   5.777 -0.7090 -2.0254  0.3600
  157DOPC    C221556  11.503   7.802   5.594  0.7902  0.7206 -0.7697
  157DOPC    HS21557  11.415   7.774   5.657  1.0497  0.2302 -0.6196
  157DOPC   O2121558  11.512   7.731   5.467 -0.1547 -0.3742  0.0098
  157DOPC   C2121559  11.403   7.677   5.417 -0.3858  0.1813  0.0041
  157DOPC   O2221560  11.293   7.676   5.468  0.5388  0.1438  0.1943
  157DOPC   C2221561  11.432   7.618   5.276 -1.0267  0.0481 -0.0728
  157DOPC   H2R21562  11.425   7.508   5.293  0.8436 -0.4431 -2.0671
  157DOPC   H2S21563  11.540   7.637   5.256 -1.2755 -0.5722 -2.1604
  157DOPC    C321564  11.476   7.953   5.573  0.1934 -0.1414 -0.1214
  157DOPC    HX21565  11.493   8.014   5.664 -1.1191  2.4636 -1.5182
  157DOPC    HY21566  11.375   7.968   5.530 -0.9026 -1.3914  1.8032
  157DOPC   O3121567  11.562   7.995   5.463  0.2020  0.0622  0.3791
  157DOPC   C3121568  11.679   8.042   5.485 -0.1535  0.6870 -0.5458
  157DOPC   O3221569  11.738   8.056   5.591 -0.9129 -0.0261  0.3474
  157DOPC   C3221570  11.742   8.063   5.347  0.7304  0.0999 -0.3620
  157DOPC   H2X21571  11.789   7.968   5.314 -2.6076 -1.5121 -0.8343
  157DOPC   H2Y21572  11.660   8.094   5.280 -0.7038  1.6870  1.9579
  157DOPC   C2321573  11.343   7.673   5.165  0.1946 -0.1646 -0.0568
  157DOPC   H3R21574  11.242   7.684   5.209  0.6883  1.4291  0.7610
  157DOPC   H3S21575  11.347   7.607   5.076  1.8196 -0.1542 -0.0326
  157DOPC   C2421576  11.390   7.812   5.117  0.0088  1.2128 -0.1074
  157DOPC   H4R21577  11.399   7.886   5.199  0.9628 -2.0097  2.9034
  157DOPC   H4S21578  11.318   7.849   5.041 -0.8285  1.1471  0.6354
  157DOPC   C2521579  11.530   7.812   5.058  0.3005  0.3119  0.0160
  157DOPC   H5R21580  11.548   7.722   4.996  0.5436  0.0181  0.5126
  157DOPC   H5S21581  11.603   7.805   5.141  0.4376 -0.0597 -0.1352
  157DOPC   C2621582  11.571   7.947   4.986  0.2484 -0.3456 -1.0159
  157DOPC   H6R21583  11.682   7.951   4.975  0.2584 -0.6212 -1.0289
  157DOPC   H6S21584  11.535   8.034   5.045 -0.0875 -0.3246 -1.2498
  157DOPC   C2721585  11.502   7.945   4.844 -0.0327 -0.0422  0.2076
  157DOPC   H7R21586  11.395   7.974   4.845 -0.3325 -0.9351 -2.0332
  157DOPC   H7S21587  11.490   7.840   4.813 -0.0407 -0.1620  0.6080
  157DOPC   C2821588  11.586   8.016   4.734 -0.1970 -0.0601 -0.4539
  157DOPC   H8R21589  11.551   7.991   4.632 -0.1533  2.2130 -1.0720
  157DOPC   H8S21590  11.686   7.974   4.761  1.0415  3.3767  0.8306
  157DOPC   C2921591  11.590   8.169   4.742 -0.7401  0.0989 -0.4388
  157DOPC   H9R21592  11.634   8.219   4.830  1.0348  1.7472 -2.1716
  157DOPC  C21021593  11.536   8.243   4.644 -0.0800 -0.7092 -0.0486
  157DOPC  H10R21594  11.552   8.352   4.652  3.3840 -0.9142 -2.1153
  157DOPC  C21121595  11.478   8.197   4.515 -0.0838 -0.2756 -0.0642
  157DOPC  H11R21596  11.384   8.141   4.529 -0.2771 -0.2660 -1.2014
  157DOPC  H11S21597  11.555   8.144   4.454  3.5562  0.9187  3.0916
  157DOPC  C21221598  11.422   8.323   4.440 -0.4188 -0.0539 -0.3908
  157DOPC  H12R21599  11.410   8.307   4.331  1.3477  1.0939 -0.7942
  157DOPC  H12S21600  11.487   8.413   4.436 -0.4647 -0.0502 -1.3167
  157DOPC  C21321601  11.290   8.382   4.495 -0.7025  0.0094  0.3241
  157DOPC  H13R21602  11.266   8.483   4.454 -1.7793  0.3506  1.7396
  157DOPC  H13S21603  11.305   8.404   4.603 -0.4048 -0.1484  0.3167
  157DOPC  C21421604  11.167   8.300   4.466  0.1844  0.2227 -0.4807
  157DOPC  H14R21605  11.090   8.362   4.515 -0.0311  1.7800 -2.6625
  157DOPC  H14S21606  11.168   8.201   4.516  0.8807  0.5351  0.1426
  157DOPC  C21521607  11.143   8.284   4.317  0.2745  0.8646  0.2696
  157DOPC  H15R21608  11.232   8.229   4.282 -0.2490  0.7575 -0.9248
  157DOPC  H15S21609  11.134   8.384   4.270  0.3097 -0.1886 -2.1184
  157DOPC  C21621610  11.020   8.205   4.269 -0.8207  0.0504  0.3074
  157DOPC  H16R21611  10.931   8.257   4.310 -0.8985 -0.6510  1.0517
  157DOPC  H16S21612  11.008   8.099   4.300 -2.8230  0.6245  1.6918
  157DOPC  C21721613  11.019   8.220   4.116 -0.7161 -0.0311  0.4548
  157DOPC  H17R21614  11.113   8.174   4.077  1.3665  3.7662  0.5207
  157DOPC  H17S21615  11.031   8.329   4.100 -0.6764 -0.1646 -0.4817
  157DOPC  C21821616  10.892   8.164   4.058  0.7974 -0.0548 -0.0308
  157DOPC  H18R21617  10.898   8.152   3.948  0.5043 -1.0301  0.0445
  157DOPC  H18S21618  10.806   8.232   4.076  0.2646 -0.7812  0.2111
  157DOPC  H18T21619  10.873   8.067   4.110 -0.8551 -0.2782 -0.9794
  157DOPC   C3321620  11.858   8.171   5.340  0.0165 -0.0427 -0.0969
  157DOPC   H3X21621  11.825   8.264   5.391  2.3429  0.7217  0.1630
  157DOPC   H3Y21622  11.859   8.201   5.233 -0.1787  3.5210  0.7616
  157DOPC   C3421623  11.995   8.116   5.377 -0.0609 -0.1196  0.5781
  157DOPC   H4X21624  12.019   8.032   5.308  1.8412 -0.2203  1.3048
  157DOPC   H4Y21625  12.000   8.088   5.485  2.1079  3.7009  1.6502
  157DOPC   C3521626  12.105   8.221   5.350 -0.4455  0.3773 -0.3611
  157DOPC   H5X21627  12.076   8.313   5.404 -0.7842  1.2059 -1.8790
  157DOPC   H5Y21628  12.124   8.237   5.241  1.7967 -1.1021 -0.2614
  157DOPC   C3621629  12.240   8.173   5.407  0.3866 -0.1294  0.5259
  157DOPC   H6X21630  12.213   8.123   5.502  1.1576  0.1147  0.8853
  157DOPC   H6Y21631  12.274   8.095   5.335  1.1596  2.2170 -1.7991
  157DOPC   C3721632  12.341   8.273   5.438 -0.6931  0.6189  0.0185
  157DOPC   H7X21633  12.353   8.343   5.353  0.9838 -0.2439 -0.4861
  157DOPC   H7Y21634  12.310   8.328   5.530 -1.1462 -0.3359  0.4573
  157DOPC   C3821635  12.477   8.215   5.473 -0.3409  0.3402 -0.1214
  157DOPC   H8X21636  12.516   8.164   5.382 -1.1768 -4.4953  1.9153
  157DOPC   H8Y21637  12.479   8.134   5.549  0.6112 -0.0688 -0.5676
  157DOPC   C3921638  12.578   8.316   5.517 -0.5290  0.2086  0.5619
  157DOPC   H9X21639  12.552   8.396   5.589  1.4419  2.9166 -1.5219
  157DOPC  C31021640  12.708   8.342   5.476 -0.0881  0.2490  0.2023
  157DOPC  H10X21641  12.772   8.428   5.504  3.8895 -1.9906 -1.1582
  157DOPC  C31121642  12.782   8.268   5.366  0.0489 -0.6089  0.0909
  157DOPC  H11X21643  12.722   8.183   5.328 -1.4448  0.4681 -0.0137
  157DOPC  H11Y21644  12.873   8.225   5.413 -0.3463 -0.3672  1.0930
  157DOPC  C31221645  12.805   8.345   5.233 -0.3251  0.1619 -0.0393
  157DOPC  H12X21646  12.845   8.283   5.150 -0.5844 -1.8235  1.2663
  157DOPC  H12Y21647  12.893   8.409   5.254  0.5216 -1.7136  2.7029
  157DOPC  C31321648  12.691   8.429   5.186  0.3346 -0.3447 -0.1871
  157DOPC  H13X21649  12.592   8.379   5.197  0.7311 -0.6795  2.7287
  157DOPC  H13Y21650  12.680   8.520   5.250  0.7590 -0.3273 -0.1390
  157DOPC  C31421651  12.699   8.475   5.041  0.3140 -0.1412  0.4056
  157DOPC  H14X21652  12.614   8.546   5.029  1.0535  0.7268  0.1420
  157DOPC  H14Y21653  12.789   8.539   5.027  0.9771 -1.2087 -0.3277
  157DOPC  C31521654  12.702   8.354   4.947 -0.3354  0.2672 -0.5242
  157DOPC  H15X21655  12.614   8.292   4.973 -1.3073  1.0545 -1.7979
  157DOPC  H15Y21656  12.787   8.285   4.960 -0.3289  0.3261 -0.2432
  157DOPC  C31621657  12.704   8.390   4.791 -0.0725  0.5617 -0.3467
  157DOPC  H16X21658  12.603   8.433   4.774 -1.8042 -3.4026 -1.1135
  157DOPC  H16Y21659  12.779   8.468   4.766  1.1447 -0.0033  1.3608
  157DOPC  C31721660  12.729   8.271   4.703  0.3668 -0.4301  0.2370
  157DOPC  H17X21661  12.712   8.307   4.599 -0.1600 -0.8169  0.1847
  157DOPC  H17Y21662  12.833   8.233   4.706 -0.2095 -2.2205 -0.8542
  157DOPC  C31821663  12.629   8.160   4.732 -0.4454  0.4447 -0.1302
  157DOPC  H18X21664  12.527   8.197   4.708  0.2252  1.2161 -1.9083
  157DOPC  H18Y21665  12.661   8.076   4.667 -0.3475 -1.0593  1.7834
  157DOPC  H18Z21666  12.635   8.118   4.835  0.2715  2.5854  0.7516
  158DOPC     N21667   1.986   3.268   5.704 -0.0202 -0.1022 -0.2568
  158DOPC   C1221668   2.004   3.293   5.552  0.3856  0.1246 -0.0952
  158DOPC  H12A21669   1.960   3.212   5.497  0.8560  0.3815 -0.8712
  158DOPC  H12B21670   2.109   3.283   5.526  0.6851  0.1603  1.0433
  158DOPC   C1321671   2.030   3.125   5.740  0.0328  0.1412  0.5222
  158DOPC  H13A21672   2.136   3.105   5.734 -0.1065 -1.3160  2.2010
  158DOPC  H13B21673   1.982   3.099   5.833  1.1568  0.8539  1.3267
  158DOPC  H13C21674   1.976   3.058   5.675  1.3768  0.7069 -1.2734
  158DOPC   C1421675   1.839   3.279   5.742  0.9644  1.0571 -0.2017
  158DOPC  H14A21676   1.807   3.382   5.745  0.0418  0.8783 -2.2003
  158DOPC  H14B21677   1.775   3.219   5.679 -1.4892 -0.0959  3.0939
  158DOPC  H14C21678   1.824   3.251   5.845 -0.0445  1.7447 -0.1476
  158DOPC   C1521679   2.071   3.361   5.777  0.8933  0.1139 -0.5049
  158DOPC  H15A21680   2.047   3.353   5.882  1.3607 -1.1827 -0.4788
  158DOPC  H15B21681   2.078   3.462   5.740  2.4016  0.9493  1.8090
  158DOPC  H15C21682   2.176   3.336   5.771  1.1049  0.0279  2.1339
  158DOPC   C1121683   1.959   3.429   5.497 -0.9264 -0.1722 -0.5013
  158DOPC  H11A21684   1.949   3.417   5.387 -1.6345 -1.0382 -0.3566
  158DOPC  H11B21685   1.863   3.456   5.547 -0.3534 -1.9898  1.7290
  158DOPC     P21686   2.043   3.676   5.496  0.2646  0.2914 -0.1781
  158DOPC   O1321687   2.170   3.723   5.448 -0.6920  0.4913 -0.0956
  158DOPC   O1421688   1.976   3.741   5.607  0.2883  0.1416 -0.4756
  158DOPC   O1221689   2.061   3.525   5.528 -0.0920  0.4958  0.7987
  158DOPC   O1121690   1.941   3.690   5.373  0.0953  0.3107  0.2822
  158DOPC    C121691   1.978   3.755   5.251 -0.0074  0.0833 -0.0286
  158DOPC    HA21692   2.042   3.844   5.273 -1.0953  1.1819 -1.1320
  158DOPC    HB21693   1.895   3.803   5.194  1.1146  0.4494 -1.4284
  158DOPC    C221694   2.054   3.669   5.150 -0.2216  0.1726 -0.0658
  158DOPC    HS21695   2.089   3.577   5.201 -0.9766 -1.0649 -1.6823
  158DOPC   O2121696   2.165   3.752   5.097  0.6098  0.5701 -0.1712
  158DOPC   C2121697   2.256   3.688   5.028  0.5965 -0.1912 -0.3411
  158DOPC   O2221698   2.261   3.569   5.005 -0.0181 -0.6074 -0.5562
  158DOPC   C2221699   2.347   3.793   4.971  0.1799 -0.4323 -0.2734
  158DOPC   H2R21700   2.442   3.737   4.959 -0.4231 -2.3175  2.6524
  158DOPC   H2S21701   2.352   3.873   5.048 -0.0284 -0.3795 -0.3134
  158DOPC    C321702   1.953   3.603   5.047  0.2262  0.5040  0.1295
  158DOPC    HX21703   1.890   3.548   5.120  1.2718 -0.1606  0.5589
  158DOPC    HY21704   2.014   3.544   4.975 -0.4184 -0.3054  0.2301
  158DOPC   O3121705   1.876   3.703   4.983  0.8002  0.1096  0.7844
  158DOPC   C3121706   1.798   3.657   4.887 -0.3541  0.1632  0.1089
  158DOPC   O3221707   1.805   3.551   4.833 -0.1591 -0.4113 -0.3352
  158DOPC   C3221708   1.709   3.770   4.847 -0.0988  0.2362 -0.7698
  158DOPC   H2X21709   1.626   3.785   4.920  0.7064 -1.2233  0.5086
  158DOPC   H2Y21710   1.772   3.861   4.830 -1.4469  0.8613 -2.6872
  158DOPC   C2321711   2.294   3.861   4.845  0.0065  0.3925 -0.2572
  158DOPC   H3R21712   2.348   3.958   4.836  0.2892  0.2681  0.0429
  158DOPC   H3S21713   2.187   3.887   4.852  0.1910  1.3612 -0.8198
  158DOPC   C2421714   2.322   3.772   4.724  0.4237 -0.3548 -0.4694
  158DOPC   H4R21715   2.266   3.677   4.733 -0.0227  0.0163  1.1763
  158DOPC   H4S21716   2.429   3.742   4.731  1.6038  3.5895  1.4326
  158DOPC   C2521717   2.279   3.842   4.595 -0.5546 -0.4628  0.1861
  158DOPC   H5R21718   2.325   3.943   4.599 -1.6562  0.0181  1.6165
  158DOPC   H5S21719   2.169   3.855   4.586 -0.4289  0.8408  0.3726
  158DOPC   C2621720   2.348   3.769   4.476  0.2140  1.0802  0.9153
  158DOPC   H6R21721   2.322   3.661   4.477 -0.0057  1.0781 -0.9785
  158DOPC   H6S21722   2.455   3.768   4.505  0.8417 -1.1410 -1.1229
  158DOPC   C2721723   2.343   3.841   4.338  0.0466 -0.0814 -0.2434
  158DOPC   H7R21724   2.407   3.932   4.347 -0.6975  0.3619  0.7406
  158DOPC   H7S21725   2.243   3.886   4.319  0.4990  1.9673  1.7285
  158DOPC   C2821726   2.379   3.759   4.223 -0.6723  0.3117 -0.2872
  158DOPC   H8R21727   2.476   3.704   4.214 -0.7243  0.4755 -2.5964
  158DOPC   H8S21728   2.408   3.836   4.148  1.1429  0.8434  0.8741
  158DOPC   C2921729   2.278   3.659   4.178  0.0322  0.3477 -0.4821
  158DOPC   H9R21730   2.271   3.569   4.241  0.7700 -0.0536 -0.9661
  158DOPC  C21021731   2.198   3.673   4.072  0.6525  0.2115 -0.2364
  158DOPC  H10R21732   2.130   3.590   4.049  0.8158 -0.1383  0.5016
  158DOPC  C21121733   2.188   3.785   3.978 -0.1939  0.1318  0.6275
  158DOPC  H11R21734   2.247   3.752   3.890 -0.6671 -0.2892  0.4590
  158DOPC  H11S21735   2.240   3.879   4.006 -2.5034  1.6320  0.1618
  158DOPC  C21221736   2.043   3.833   3.937 -0.5110  0.2219 -0.0553
  158DOPC  H12R21737   1.968   3.752   3.946 -1.0568  0.8180  0.8778
  158DOPC  H12S21738   2.045   3.840   3.826  0.0826 -0.5511 -0.1035
  158DOPC  C21321739   2.001   3.963   4.002 -0.1438  0.7263  0.6293
  158DOPC  H13R21740   2.088   4.031   4.013 -0.0416  0.5361  1.0591
  158DOPC  H13S21741   1.974   3.953   4.110 -0.3132  2.2951  0.7576
  158DOPC  C21421742   1.879   4.018   3.929 -0.4030 -1.2210  0.5981
  158DOPC  H14R21743   1.794   3.948   3.948 -0.8291 -1.0772 -0.7299
  158DOPC  H14S21744   1.906   4.028   3.822 -0.6469 -0.0758  0.6343
  158DOPC  C21521745   1.835   4.151   3.992 -0.0115 -0.6479 -0.1974
  158DOPC  H15R21746   1.932   4.205   3.993 -0.8785  0.9990  1.2444
  158DOPC  H15S21747   1.801   4.133   4.096  2.0024 -2.3498  0.2472
  158DOPC  C21621748   1.726   4.236   3.922  0.0798  0.8839 -0.4863
  158DOPC  H16R21749   1.627   4.187   3.935 -0.9158  2.9491  0.1841
  158DOPC  H16S21750   1.733   4.230   3.811 -1.0611 -0.2446 -0.5221
  158DOPC  C21721751   1.717   4.379   3.973  0.4742  0.3726  0.4662
  158DOPC  H17R21752   1.622   4.423   3.936  0.7441 -0.8520 -1.9073
  158DOPC  H17S21753   1.798   4.429   3.915 -0.8537  1.0319 -0.9114
  158DOPC  C21821754   1.723   4.407   4.128  0.2587 -0.3229 -0.1781
  158DOPC  H18R21755   1.656   4.330   4.172 -0.2907 -1.2598 -2.5120
  158DOPC  H18S21756   1.703   4.515   4.144 -0.4433 -0.4880  0.0888
  158DOPC  H18T21757   1.825   4.376   4.160  0.5202  0.7664  0.1052
  158DOPC   C3321758   1.634   3.749   4.707 -0.1407  0.7545  0.2866
  158DOPC   H3X21759   1.578   3.653   4.709  2.6151 -1.0679 -2.1129
  158DOPC   H3Y21760   1.719   3.730   4.639 -0.0909 -0.7913  0.7281
  158DOPC   C3421761   1.541   3.854   4.655  0.2398 -0.4288 -0.2131
  158DOPC   H4X21762   1.452   3.853   4.721 -0.5941  0.8903 -1.2813
  158DOPC   H4Y21763   1.499   3.824   4.557 -1.6034  2.0651 -0.2779
  158DOPC   C3521764   1.589   3.996   4.661 -0.5280 -0.7476 -0.9523
  158DOPC   H5X21765   1.608   4.021   4.768 -1.5200 -0.6878 -0.7813
  158DOPC   H5Y21766   1.501   4.054   4.626 -1.3926 -1.5573 -0.1753
  158DOPC   C3621767   1.722   4.021   4.592 -0.5704  0.2981 -0.2235
  158DOPC   H6X21768   1.800   3.971   4.652 -0.9777 -1.8680 -1.4164
  158DOPC   H6Y21769   1.720   3.971   4.493  0.0123 -0.3948  0.1066
  158DOPC   C3721770   1.749   4.170   4.570  0.7407  0.1073  0.4321
  158DOPC   H7X21771   1.686   4.201   4.483  0.4117 -2.5547 -0.3819
  158DOPC   H7Y21772   1.713   4.226   4.659  2.7067 -0.9661  1.9777
  158DOPC   C3821773   1.896   4.195   4.554  0.1019 -0.4364  0.2466
  158DOPC   H8X21774   1.918   4.289   4.499  0.7303  0.6553  2.2620
  158DOPC   H8Y21775   1.936   4.123   4.480  3.2698  0.2215  1.1893
  158DOPC   C3921776   1.973   4.180   4.684  0.2850 -0.6002 -0.3894
  158DOPC   H9X21777   1.948   4.091   4.743 -1.1812  0.6269  0.9377
  158DOPC  C31021778   2.055   4.264   4.748  0.0950 -0.2486  0.3800
  158DOPC  H10X21779   2.097   4.237   4.846 -0.8969 -1.8630  0.4090
  158DOPC  C31121780   2.088   4.402   4.694  0.1728 -0.3085  0.3766
  158DOPC  H11X21781   2.035   4.429   4.600  1.5465  0.0069 -0.3351
  158DOPC  H11Y21782   2.194   4.413   4.664 -0.0178 -0.2513 -0.3089
  158DOPC  C31221783   2.059   4.519   4.788  0.0523 -0.1554  0.5915
  158DOPC  H12X21784   2.095   4.498   4.891  2.1061 -2.7705 -0.5258
  158DOPC  H12Y21785   1.950   4.537   4.789 -0.5164 -1.3483 -5.1874
  158DOPC  C31321786   2.125   4.647   4.751  0.5292 -0.1032 -0.3973
  158DOPC  H13X21787   2.236   4.650   4.757  0.4471  1.7879  2.1887
  158DOPC  H13Y21788   2.108   4.686   4.649  0.4597  3.0886  0.7009
  158DOPC  C31421789   2.088   4.767   4.842 -0.3046 -0.9010 -0.1411
  158DOPC  H14X21790   2.101   4.866   4.792 -0.4316  0.2174  1.9323
  158DOPC  H14Y21791   1.978   4.771   4.857 -0.2442 -0.3689  0.1901
  158DOPC  C31521792   2.179   4.782   4.965  0.5501  0.2158 -0.0031
  158DOPC  H15X21793   2.285   4.804   4.940  1.1465  0.4177  2.4330
  158DOPC  H15Y21794   2.178   4.691   5.029  0.0736 -0.9105 -1.5403
  158DOPC  C31621795   2.146   4.904   5.055 -0.2158 -0.1236 -0.1734
  158DOPC  H16X21796   2.044   4.886   5.095 -0.0284 -0.8080  0.0067
  158DOPC  H16Y21797   2.219   4.917   5.139 -0.1170  3.1129 -0.6282
  158DOPC  C31721798   2.146   5.049   5.000  0.1134 -0.2087  0.0672
  158DOPC  H17X21799   2.065   5.038   4.925  0.2734 -4.7500  0.2938
  158DOPC  H17Y21800   2.126   5.124   5.079  2.8889  0.2161  0.4657
  158DOPC  C31821801   2.275   5.089   4.923  0.0491 -0.1235 -0.0104
  158DOPC  H18X21802   2.359   5.090   4.995  0.0748 -1.9670  0.0208
  158DOPC  H18Y21803   2.298   5.011   4.847 -0.8768  1.1183 -1.6482
  158DOPC  H18Z21804   2.258   5.188   4.874  0.0910 -0.5794 -0.9693
  159DOPC     N21805   3.266   8.449   6.268 -0.6540 -0.2759  0.7009
  159DOPC   C1221806   3.269   8.579   6.190  0.1415  0.0438  0.2039
  159DOPC  H12A21807   3.164   8.603   6.187  0.0400  0.0262  2.0763
  159DOPC  H12B21808   3.306   8.561   6.091 -1.0748  1.2051 -0.4908
  159DOPC   C1321809   3.197   8.349   6.178  0.2384 -0.9461  0.4511
  159DOPC  H13A21810   3.103   8.389   6.145 -0.7974 -3.2924  0.4104
  159DOPC  H13B21811   3.261   8.326   6.094  3.3396 -0.9450  2.6262
  159DOPC  H13C21812   3.185   8.252   6.224  0.4433 -0.9581  0.4820
  159DOPC   C1421813   3.187   8.468   6.401 -0.0707 -0.2458 -0.5006
  159DOPC  H14A21814   3.260   8.506   6.471  0.7405 -1.9722 -0.3362
  159DOPC  H14B21815   3.105   8.537   6.385  1.1545  1.7359  1.2430
  159DOPC  H14C21816   3.152   8.371   6.435  1.2398 -0.8321 -0.7679
  159DOPC   C1521817   3.402   8.389   6.297 -0.4403  0.1042  0.2447
  159DOPC  H15A21818   3.439   8.351   6.203 -0.2483  1.3255 -0.1996
  159DOPC  H15B21819   3.381   8.305   6.361 -1.0878 -0.9538 -1.3033
  159DOPC  H15C21820   3.471   8.455   6.347 -0.1893 -0.9549  1.3448
  159DOPC   C1121821   3.344   8.700   6.269 -0.3989  0.1799  0.5772
  159DOPC  H11A21822   3.442   8.660   6.304 -0.7342 -3.0256 -1.7231
  159DOPC  H11B21823   3.374   8.776   6.194  0.8579 -0.5369  0.3117
  159DOPC     P21824   3.140   8.831   6.347  0.3944  0.2827 -0.1018
  159DOPC   O1321825   3.117   8.934   6.453  0.9927 -0.4516 -0.5788
  159DOPC   O1421826   3.034   8.727   6.331 -0.5605 -0.3215 -0.2156
  159DOPC   O1221827   3.273   8.749   6.382 -0.2568 -0.1041  0.5856
  159DOPC   O1121828   3.170   8.901   6.203  0.1213 -0.1925 -0.2534
  159DOPC    C121829   3.054   8.893   6.119 -0.2353 -0.4355  0.1290
  159DOPC    HA21830   2.961   8.926   6.171 -1.3295  0.1880 -2.0973
  159DOPC    HB21831   3.037   8.788   6.087 -2.2615 -0.6460  1.6756
  159DOPC    C221832   3.053   8.976   5.984  0.5402  0.0289  0.7213
  159DOPC    HS21833   3.002   8.912   5.909 -1.3149  2.1227  0.0725
  159DOPC   O2121834   3.186   9.010   5.949 -0.3491  0.1588  0.4011
  159DOPC   C2121835   3.248   8.928   5.867 -0.1588  0.6437 -0.6716
  159DOPC   O2221836   3.205   8.823   5.829 -0.0949  0.7507  0.4914
  159DOPC   C2221837   3.390   8.982   5.838  0.2465 -0.1606 -0.0434
  159DOPC   H2R21838   3.463   8.946   5.913  0.9975  2.1995  0.4457
  159DOPC   H2S21839   3.385   9.093   5.837  2.0198 -0.0467 -0.8393
  159DOPC    C321840   2.953   9.093   5.994 -0.3011  0.1646 -0.3638
  159DOPC    HX21841   2.989   9.175   6.060  0.8667 -0.2220 -0.4971
  159DOPC    HY21842   2.858   9.063   6.042 -0.3995  0.6290 -0.2624
  159DOPC   O3121843   2.927   9.130   5.856  0.0011 -0.2791 -1.0925
  159DOPC   C3121844   3.007   9.231   5.808  0.2167  0.2908 -0.7692
  159DOPC   O3221845   3.096   9.292   5.875  0.7414 -0.3509  0.0133
  159DOPC   C3221846   2.967   9.264   5.664  0.0014 -0.5772 -0.0092
  159DOPC   H2X21847   2.885   9.194   5.636  1.2345 -2.1412  0.1670
  159DOPC   H2Y21848   2.906   9.357   5.670 -0.5047 -0.7442 -1.8961
  159DOPC   C2321849   3.445   8.933   5.700  0.3293 -0.4122  0.3462
  159DOPC   H3R21850   3.372   8.978   5.629  0.5120  0.3638  0.6449
  159DOPC   H3S21851   3.431   8.822   5.697  0.5703 -0.4923  1.7728
  159DOPC   C2421852   3.591   8.971   5.682 -0.0610 -0.7207  0.1190
  159DOPC   H4R21853   3.651   8.922   5.762  1.2704  2.0929  0.9732
  159DOPC   H4S21854   3.611   9.080   5.694 -2.3257 -0.4978  3.3714
  159DOPC   C2521855   3.641   8.932   5.544  0.8962  0.3836 -0.6317
  159DOPC   H5R21856   3.616   9.007   5.465  1.8608  1.2866 -0.1038
  159DOPC   H5S21857   3.596   8.836   5.512  1.4908  0.0756 -0.5549
  159DOPC   C2621858   3.792   8.917   5.543 -0.1751  0.3101 -0.5402
  159DOPC   H6R21859   3.832   8.856   5.627  0.9205  3.6507  1.5656
  159DOPC   H6S21860   3.838   9.018   5.553  2.6458 -0.7878 -1.5711
  159DOPC   C2721861   3.863   8.848   5.421 -0.0105  0.2589  0.7355
  159DOPC   H7R21862   3.852   8.911   5.330 -2.6390 -1.1128 -0.0082
  159DOPC   H7S21863   3.805   8.758   5.393 -0.1946  0.1061  1.5807
  159DOPC   C2821864   4.008   8.804   5.445  0.4226 -0.0331  0.5614
  159DOPC   H8R21865   4.044   8.755   5.351 -2.1355  1.1920 -1.1592
  159DOPC   H8S21866   4.007   8.730   5.528 -1.9464 -0.3167  0.3407
  159DOPC   C2921867   4.103   8.913   5.471 -0.2746  0.1142  0.3855
  159DOPC   H9R21868   4.106   8.942   5.577 -3.0512  1.5605  0.1294
  159DOPC  C21021869   4.212   8.954   5.396 -0.3432 -0.1406 -0.1028
  159DOPC  H10R21870   4.278   9.025   5.449 -0.0698 -0.4811  0.0196
  159DOPC  C21121871   4.247   8.900   5.257 -0.4799 -0.0889  0.5716
  159DOPC  H11R21872   4.248   8.980   5.179 -0.0595 -2.6040 -2.2008
  159DOPC  H11S21873   4.166   8.831   5.228 -0.2064 -0.1292 -0.1302
  159DOPC  C21221874   4.377   8.813   5.244  0.4057  0.1941  0.3219
  159DOPC  H12R21875   4.385   8.726   5.313  1.0502  0.7899  1.0062
  159DOPC  H12S21876   4.469   8.873   5.260  0.7149 -0.6061  1.7784
  159DOPC  C21321877   4.392   8.750   5.103  0.1119  0.3402  0.0411
  159DOPC  H13R21878   4.482   8.685   5.106 -0.2605 -0.3924 -2.1746
  159DOPC  H13S21879   4.421   8.828   5.029 -0.8040 -1.4300 -2.3145
  159DOPC  C21421880   4.276   8.671   5.058 -1.0051  0.9077  0.1178
  159DOPC  H14R21881   4.183   8.729   5.041 -1.1212  0.4472 -0.8755
  159DOPC  H14S21882   4.256   8.585   5.125 -1.5689 -0.6619 -1.9450
  159DOPC  C21521883   4.306   8.602   4.922 -0.5788  0.2472 -0.1361
  159DOPC  H15R21884   4.402   8.547   4.923 -0.0094  1.2086  0.9301
  159DOPC  H15S21885   4.319   8.686   4.850 -0.3184 -0.6307 -1.1289
  159DOPC  C21621886   4.187   8.514   4.880  0.5003 -0.3486 -0.0901
  159DOPC  H16R21887   4.091   8.569   4.870  0.4053 -0.6768 -1.1438
  159DOPC  H16S21888   4.173   8.434   4.955 -1.7296 -0.3405 -0.4117
  159DOPC  C21721889   4.222   8.434   4.752 -0.4489 -0.6415 -0.2712
  159DOPC  H17R21890   4.304   8.363   4.773 -1.1263 -1.8300 -1.4967
  159DOPC  H17S21891   4.254   8.498   4.667 -2.2284 -0.5817 -0.9475
  159DOPC  C21821892   4.098   8.358   4.708  0.4594  0.6768  0.3117
  159DOPC  H18R21893   4.076   8.290   4.792 -2.0292 -0.8230 -1.4396
  159DOPC  H18S21894   4.121   8.288   4.625 -1.0948  0.9536 -0.3897
  159DOPC  H18T21895   4.013   8.426   4.686 -0.0071  0.3798  1.1664
  159DOPC   C3321896   3.086   9.279   5.567  0.3010  0.0537 -0.3341
  159DOPC   H3X21897   3.159   9.359   5.591 -1.8484  2.5722 -1.7356
  159DOPC   H3Y21898   3.042   9.316   5.472  1.3787  0.5774 -0.6417
  159DOPC   C3421899   3.154   9.145   5.524  0.3089  0.6712  0.2659
  159DOPC   H4X21900   3.175   9.088   5.617  1.5170  0.3737 -0.1740
  159DOPC   H4Y21901   3.252   9.165   5.477  0.0496  2.3806  0.3818
  159DOPC   C3521902   3.070   9.060   5.433 -0.0727  0.1075  0.8415
  159DOPC   H5X21903   3.041   9.113   5.339 -0.5503 -0.5862  0.5863
  159DOPC   H5Y21904   2.976   9.018   5.474 -1.2471  1.0105 -0.7852
  159DOPC   C3621905   3.153   8.939   5.388  0.1209 -0.1466  0.0745
  159DOPC   H6X21906   3.219   8.895   5.465  0.0828 -2.2827 -1.0460
  159DOPC   H6Y21907   3.082   8.857   5.364  0.4719 -1.4404  3.0125
  159DOPC   C3721908   3.238   8.958   5.265 -0.3101 -0.0418  0.3726
  159DOPC   H7X21909   3.164   9.002   5.195  0.9257  0.4732 -0.6619
  159DOPC   H7Y21910   3.317   9.036   5.277  0.3768 -0.6879  0.1498
  159DOPC   C3821911   3.286   8.829   5.200  0.3789  0.1142  0.5269
  159DOPC   H8X21912   3.296   8.846   5.091 -0.7346 -0.3090  0.3465
  159DOPC   H8Y21913   3.200   8.759   5.208  0.6437 -0.1882  0.7178
  159DOPC   C3921914   3.395   8.756   5.273  0.2199 -0.3471  0.1702
  159DOPC   H9X21915   3.410   8.770   5.381  0.6607  0.0522  0.0582
  159DOPC  C31021916   3.488   8.683   5.203 -0.1499 -0.3074 -0.0748
  159DOPC  H10X21917   3.569   8.641   5.264  0.4475 -0.5398 -0.9974
  159DOPC  C31121918   3.499   8.642   5.058 -0.2512  0.1672 -0.1121
  159DOPC  H11X21919   3.412   8.665   4.994 -0.2629 -3.7015 -1.7637
  159DOPC  H11Y21920   3.493   8.531   5.059  1.4754  0.0412 -0.5442
  159DOPC  C31221921   3.623   8.693   4.983  0.6070  0.5105  0.1087
  159DOPC  H12X21922   3.706   8.657   5.048  0.3590 -0.6242 -0.1683
  159DOPC  H12Y21923   3.637   8.802   4.970  3.8194  0.2269  0.2403
  159DOPC  C31321924   3.635   8.621   4.851  0.4730  0.8126  0.0001
  159DOPC  H13X21925   3.634   8.512   4.868 -1.8845  1.0120  1.6114
  159DOPC  H13Y21926   3.546   8.640   4.787  0.1211 -0.5705  0.0568
  159DOPC  C31421927   3.756   8.646   4.769 -0.2094 -0.1269 -0.0814
  159DOPC  H14X21928   3.757   8.750   4.731 -1.5774 -0.2384 -0.4624
  159DOPC  H14Y21929   3.847   8.625   4.829 -1.6546 -2.4814  1.4555
  159DOPC  C31521930   3.757   8.574   4.634  0.2247  0.0763  0.0653
  159DOPC  H15X21931   3.859   8.582   4.590  0.3778 -0.8437  0.2327
  159DOPC  H15Y21932   3.687   8.616   4.559  1.0787 -0.9203 -1.3723
  159DOPC  C31621933   3.724   8.427   4.641  0.3690  0.5093 -0.0917
  159DOPC  H16X21934   3.793   8.380   4.715 -1.1951 -1.3346  0.2822
  159DOPC  H16Y21935   3.620   8.419   4.677 -0.3156  0.3329 -2.0027
  159DOPC  C31721936   3.730   8.351   4.506 -0.5043  0.8968  0.5075
  159DOPC  H17X21937   3.665   8.400   4.430  0.9665  0.2032 -1.2600
  159DOPC  H17Y21938   3.833   8.360   4.465 -0.6210 -0.5741 -0.1625
  159DOPC  C31821939   3.710   8.197   4.501  0.3518 -0.1334 -0.0312
  159DOPC  H18X21940   3.767   8.142   4.579  0.5154 -3.1013 -2.0829
  159DOPC  H18Y21941   3.601   8.178   4.510  0.6286 -2.0352 -0.2173
  159DOPC  H18Z21942   3.752   8.161   4.405 -1.9330 -1.2673 -0.6752
  160DOPC     N21943   3.435   4.405   6.009 -0.8758 -0.1319  0.5393
  160DOPC   C1221944   3.287   4.420   5.970  0.1321  0.6506  0.2062
  160DOPC  H12A21945   3.253   4.522   5.978  0.6200  0.6607  3.2698
  160DOPC  H12B21946   3.233   4.370   6.048 -0.9270  1.0648 -0.2470
  160DOPC   C1321947   3.485   4.265   5.994 -0.2753  0.1764  0.5256
  160DOPC  H13A21948   3.591   4.264   6.011 -0.3545  0.3096  1.0416
  160DOPC  H13B21949   3.428   4.198   6.057  0.6423 -0.5846  0.5667
  160DOPC  H13C21950   3.472   4.227   5.893 -2.1646 -2.1189  1.5082
  160DOPC   C1421951   3.446   4.444   6.155  0.5166 -0.0621 -0.9035
  160DOPC  H14A21952   3.429   4.549   6.177 -1.2673 -0.8534  2.1708
  160DOPC  H14B21953   3.376   4.395   6.222  0.8117 -0.1227 -0.6374
  160DOPC  H14C21954   3.547   4.430   6.190  0.2680 -0.4704 -0.3448
  160DOPC   C1521955   3.528   4.496   5.938 -0.5846 -0.2780  0.4402
  160DOPC  H15A21956   3.505   4.601   5.945 -1.2178 -0.3768 -0.0428
  160DOPC  H15B21957   3.529   4.486   5.830  1.8337  0.2684  0.3518
  160DOPC  H15C21958   3.622   4.485   5.989 -0.7569  0.4904  0.9329
  160DOPC   C1121959   3.247   4.360   5.833  0.3943  0.3927  0.7422
  160DOPC  H11A21960   3.157   4.416   5.800 -0.2585 -1.2756 -0.4771
  160DOPC  H11B21961   3.320   4.378   5.750 -1.1193  2.7933 -0.1711
  160DOPC     P21962   3.152   4.157   5.713 -0.1068 -0.1834 -0.6753
  160DOPC   O1321963   3.008   4.195   5.698 -0.2371 -0.2265  0.5492
  160DOPC   O1421964   3.184   4.012   5.713  0.3432  0.3047  0.4873
  160DOPC   O1221965   3.208   4.222   5.841  0.2142 -0.2505  0.3749
  160DOPC   O1121966   3.221   4.210   5.589  0.0388 -0.0225 -0.3172
  160DOPC    C121967   3.224   4.145   5.456 -0.4080  0.1211 -0.2706
  160DOPC    HA21968   3.230   4.225   5.380 -0.6157  0.3015 -0.0995
  160DOPC    HB21969   3.122   4.103   5.438 -2.2006  3.0194  2.0328
  160DOPC    C221970   3.348   4.054   5.445  0.3656 -0.1964  0.4045
  160DOPC    HS21971   3.350   4.006   5.545 -1.2383  2.8705  2.0421
  160DOPC   O2121972   3.467   4.146   5.430  0.1586 -0.0502  0.6632
  160DOPC   C2121973   3.544   4.158   5.536 -0.0587 -0.1269  0.2222
  160DOPC   O2221974   3.539   4.087   5.630 -0.1284 -0.0217 -0.4202
  160DOPC   C2221975   3.633   4.287   5.519  0.1414 -0.4547 -0.5761
  160DOPC   H2R21976   3.569   4.362   5.469 -1.2002  0.2266  2.0140
  160DOPC   H2S21977   3.726   4.259   5.465  0.2368 -1.0958 -0.0940
  160DOPC    C321978   3.325   3.951   5.336 -0.2045  0.9176 -0.0993
  160DOPC    HX21979   3.267   3.983   5.247 -1.6625 -0.1890  0.4247
  160DOPC    HY21980   3.261   3.867   5.369  0.6656  0.2221 -0.1474
  160DOPC   O3121981   3.457   3.900   5.271  0.6498  0.1624 -0.0847
  160DOPC   C3121982   3.513   3.811   5.345  0.0450  0.3473  0.9207
  160DOPC   O3221983   3.479   3.766   5.449  0.1575 -0.2066  0.3905
  160DOPC   C3221984   3.651   3.774   5.279 -0.5376  0.2532  0.3895
  160DOPC   H2X21985   3.729   3.850   5.301 -2.0351  1.4779  1.7488
  160DOPC   H2Y21986   3.694   3.684   5.327  1.9585  1.9797  1.5738
  160DOPC   C2321987   3.661   4.326   5.664  0.0807 -0.7134 -0.2974
  160DOPC   H3R21988   3.725   4.247   5.710 -0.7649 -0.7738  0.7992
  160DOPC   H3S21989   3.567   4.333   5.722 -0.0904  2.0670 -0.7943
  160DOPC   C2421990   3.731   4.463   5.675 -0.1979 -0.9856  0.0195
  160DOPC   H4R21991   3.747   4.487   5.782  0.6287  0.5410 -0.4267
  160DOPC   H4S21992   3.679   4.539   5.614  2.1506  0.0373 -0.8127
  160DOPC   C2521993   3.874   4.461   5.616  0.1674 -0.1739  0.7631
  160DOPC   H5R21994   3.870   4.416   5.514 -1.2035  0.5296  0.4795
  160DOPC   H5S21995   3.938   4.411   5.692  0.2633 -0.8222  0.2620
  160DOPC   C2621996   3.925   4.600   5.580  0.1926  0.0713  0.4129
  160DOPC   H6R21997   3.913   4.668   5.667  0.1723  1.4005 -0.6088
  160DOPC   H6S21998   3.858   4.652   5.508 -0.5807 -1.8818 -0.3621
  160DOPC   C2721999   4.070   4.605   5.517  0.0878  0.0824  0.3956
  160DOPC   H7R22000   4.066   4.535   5.432 -1.2113 -1.3451  1.5860
  160DOPC   H7S22001   4.146   4.567   5.589  0.0438 -0.5936  0.0879
  160DOPC   C2822002   4.111   4.744   5.480  0.8686 -0.3458 -0.3714
  160DOPC   H8R22003   4.221   4.751   5.473  0.9312 -0.1734  0.5587
  160DOPC   H8S22004   4.091   4.810   5.567  2.8460  0.3265 -0.3771
  160DOPC   C2922005   4.040   4.805   5.366  0.1465  0.4831 -0.1306
  160DOPC   H9R22006   3.939   4.843   5.386 -0.0406  0.0054 -0.1531
  160DOPC  C21022007   4.084   4.829   5.241  0.3627 -0.0566 -0.0192
  160DOPC  H10R22008   4.012   4.869   5.167 -0.0300 -1.9459 -0.7268
  160DOPC  C21122009   4.216   4.780   5.183  0.1207 -0.0046  0.2431
  160DOPC  H11R22010   4.231   4.671   5.200  0.4473  0.0990  0.6316
  160DOPC  H11S22011   4.295   4.826   5.246 -0.9672 -0.0508  1.7000
  160DOPC  C21222012   4.218   4.824   5.040  0.6946  0.0473  0.7607
  160DOPC  H12R22013   4.186   4.929   5.026  0.0219 -0.5074 -2.8417
  160DOPC  H12S22014   4.142   4.769   4.981 -1.3728  2.6682  0.8039
  160DOPC  C21322015   4.349   4.818   4.964 -0.4089 -0.2347  0.1912
  160DOPC  H13R22016   4.383   4.714   4.985 -0.5159  0.0951  2.2729
  160DOPC  H13S22017   4.424   4.882   5.015  0.6299 -1.1029 -0.1965
  160DOPC  C21422018   4.340   4.845   4.814 -0.3204  0.1771 -1.0688
  160DOPC  H14R22019   4.244   4.813   4.768 -1.4442  0.3302  1.0166
  160DOPC  H14S22020   4.435   4.803   4.774  1.0569  2.3274 -0.2413
  160DOPC  C21522021   4.364   4.999   4.789 -0.2978 -0.2709  0.6382
  160DOPC  H15R22022   4.461   5.024   4.837 -1.9248  2.9615  2.5821
  160DOPC  H15S22023   4.296   5.065   4.847  0.7185  0.5086  0.9688
  160DOPC  C21622024   4.350   5.048   4.637 -0.8960 -0.0721 -0.7169
  160DOPC  H16R22025   4.433   5.001   4.581 -0.2089 -1.5892  1.4164
  160DOPC  H16S22026   4.368   5.158   4.634 -0.0143 -0.1050  1.2746
  160DOPC  C21722027   4.221   5.003   4.577  0.2385  0.0327  0.5187
  160DOPC  H17R22028   4.136   5.023   4.645 -1.1412 -1.3504 -0.7091
  160DOPC  H17S22029   4.228   4.893   4.569  0.5447  0.1467 -1.2184
  160DOPC  C21822030   4.196   5.057   4.434  0.0776  0.0522  0.3238
  160DOPC  H18R22031   4.108   5.003   4.392 -0.8789 -0.5785  2.9295
  160DOPC  H18S22032   4.276   5.044   4.358  0.2650 -0.8208  0.6516
  160DOPC  H18T22033   4.172   5.165   4.445  4.0450  0.9390  1.9214
  160DOPC   C3322034   3.658   3.747   5.125  0.6651  0.5174  0.0629
  160DOPC   H3X22035   3.614   3.831   5.066  1.2045  0.3666 -0.5726
  160DOPC   H3Y22036   3.585   3.664   5.112  3.0236 -2.3462  3.2627
  160DOPC   C3422037   3.799   3.710   5.082  0.9226 -0.2712  0.8973
  160DOPC   H4X22038   3.812   3.614   5.136 -1.6898 -0.6977  0.8584
  160DOPC   H4Y22039   3.880   3.780   5.110 -0.2767  2.4307 -1.8570
  160DOPC   C3522040   3.821   3.675   4.929  0.4874  1.0096 -0.5635
  160DOPC   H5X22041   3.842   3.772   4.880  1.6383  1.4208  0.6879
  160DOPC   H5Y22042   3.716   3.646   4.904  0.4862  0.8191 -0.3432
  160DOPC   C3622043   3.911   3.554   4.894 -0.0787 -0.0808 -0.2582
  160DOPC   H6X22044   4.016   3.576   4.924 -0.4280  0.8309  0.3360
  160DOPC   H6Y22045   3.869   3.467   4.950  0.0489  1.1946  1.9408
  160DOPC   C3722046   3.904   3.536   4.741 -0.0800 -0.5625 -0.0091
  160DOPC   H7X22047   3.801   3.509   4.710  0.4624 -1.9712 -0.6697
  160DOPC   H7Y22048   3.922   3.637   4.699 -1.4203 -0.3098 -0.0228
  160DOPC   C3822049   3.996   3.428   4.686  0.0728  0.2319  0.2157
  160DOPC   H8X22050   3.961   3.337   4.739  0.0979  0.1820  0.1445
  160DOPC   H8Y22051   4.092   3.466   4.728 -0.6926  2.6090 -0.0464
  160DOPC   C3922052   3.989   3.396   4.542  0.3199 -0.1219  0.4151
  160DOPC   H9X22053   3.892   3.398   4.491  0.6663 -0.2310 -0.2565
  160DOPC  C31022054   4.095   3.375   4.463 -0.3942  0.6489 -0.0332
  160DOPC  H10X22055   4.078   3.362   4.355 -1.1768 -0.2708  0.1857
  160DOPC  C31122056   4.244   3.378   4.501 -0.0588  0.1512 -0.6327
  160DOPC  H11X22057   4.258   3.414   4.605 -1.0567 -0.9793 -0.0806
  160DOPC  H11Y22058   4.302   3.444   4.433  1.7592 -0.7848 -0.0390
  160DOPC  C31222059   4.302   3.234   4.495 -0.0871 -0.3257  0.6754
  160DOPC  H12X22060   4.242   3.166   4.560  0.9000 -0.0861  1.8855
  160DOPC  H12Y22061   4.404   3.247   4.538 -0.9912  1.2972  2.5425
  160DOPC  C31322062   4.323   3.182   4.353 -0.1312  0.1309 -0.0366
  160DOPC  H13X22063   4.235   3.205   4.288  0.2969  0.5701 -0.4691
  160DOPC  H13Y22064   4.416   3.222   4.307 -0.3758  0.4734 -0.2459
  160DOPC  C31422065   4.330   3.030   4.363 -0.2443 -0.2440  1.1403
  160DOPC  H14X22066   4.386   3.018   4.459 -0.3252 -0.0466  1.2127
  160DOPC  H14Y22067   4.226   2.991   4.370 -0.1879 -0.5452  0.3704
  160DOPC  C31522068   4.420   2.963   4.252  0.5208  0.3208  0.5009
  160DOPC  H15X22069   4.512   3.022   4.233  0.6413 -0.2593 -0.8626
  160DOPC  H15Y22070   4.360   2.958   4.158  0.8777  1.3153  0.2048
  160DOPC  C31622071   4.472   2.820   4.279  0.0381 -0.0396 -0.2507
  160DOPC  H16X22072   4.535   2.813   4.370  1.1619  0.4211 -0.9638
  160DOPC  H16Y22073   4.386   2.753   4.299  0.0950 -0.0505 -0.0408
  160DOPC  C31722074   4.562   2.766   4.169 -0.9081 -0.0581  0.6889
  160DOPC  H17X22075   4.642   2.838   4.141 -1.1077 -0.2021 -0.2827
  160DOPC  H17Y22076   4.609   2.675   4.214  0.1683 -0.1682 -0.5991
  160DOPC  C31822077   4.476   2.727   4.047  0.0633 -0.3447 -0.2955
  160DOPC  H18X22078   4.384   2.674   4.082 -1.3967  1.4186 -1.3227
  160DOPC  H18Y22079   4.436   2.809   3.985  0.9431 -2.3191 -3.7337
  160DOPC  H18Z22080   4.547   2.679   3.976  0.5424 -1.4473  0.8786
  161DOPC     N22081   6.835   0.230   6.473  0.1917  0.1752  0.0430
  161DOPC   C1222082   6.763   0.296   6.358 -0.6267  0.0253 -0.5111
  161DOPC  H12A22083   6.681   0.357   6.393  0.0939  0.0811  1.1654
  161DOPC  H12B22084   6.719   0.215   6.301 -3.2707  0.1829  1.0930
  161DOPC   C1322085   6.737   0.152   6.563 -0.2087 -0.2159 -0.5707
  161DOPC  H13A22086   6.789   0.106   6.646 -1.3742 -0.5717 -0.0245
  161DOPC  H13B22087   6.655   0.210   6.600 -0.0045  0.3978 -1.0633
  161DOPC  H13C22088   6.697   0.069   6.505  1.1545  0.8493 -3.2197
  161DOPC   C1422089   6.898   0.332   6.561 -0.8328  0.1909 -0.9596
  161DOPC  H14A22090   6.821   0.391   6.609  0.1016  2.0302 -1.5978
  161DOPC  H14B22091   6.964   0.297   6.639 -0.5952  0.0559 -1.2192
  161DOPC  H14C22092   6.956   0.403   6.504  1.1836 -0.4152  0.2243
  161DOPC   C1522093   6.945   0.131   6.425 -0.1804  0.2957 -0.4459
  161DOPC  H15A22094   6.907   0.046   6.370 -2.3997  0.4614  0.7445
  161DOPC  H15B22095   7.002   0.101   6.511  0.4757  0.6918 -0.7302
  161DOPC  H15C22096   7.025   0.178   6.369  0.8402  1.3275  1.7366
  161DOPC   C1122097   6.842   0.394   6.258  0.0449 -0.5723  0.1165
  161DOPC  H11A22098   6.934   0.340   6.224 -0.1397 -0.3719 -0.7162
  161DOPC  H11B22099   6.782   0.408   6.166  0.6996 -1.3066 -0.4433
  161DOPC     P22100   6.770   0.631   6.302  0.0790 -0.0953 -0.2097
  161DOPC   O1322101   6.815   0.729   6.401  0.4514  0.1713 -0.5182
  161DOPC   O1422102   6.640   0.565   6.311  0.0918 -0.4802  0.6687
  161DOPC   O1222103   6.880   0.510   6.322  0.3595  0.6867 -0.1135
  161DOPC   O1122104   6.784   0.683   6.153 -0.0979 -0.5689  0.6390
  161DOPC    C122105   6.911   0.708   6.089  0.0741  0.3533  0.3293
  161DOPC    HA22106   6.981   0.624   6.109  1.3058  0.9636 -1.2455
  161DOPC    HB22107   6.964   0.794   6.135  1.9706 -0.5518 -0.0722
  161DOPC    C222108   6.902   0.731   5.935  0.1662 -0.3937  0.2537
  161DOPC    HS22109   6.863   0.835   5.927  0.0544 -0.1009  3.3579
  161DOPC   O2122110   6.828   0.622   5.879 -0.1917 -0.3974 -0.4458
  161DOPC   C2122111   6.698   0.641   5.873  0.4420  0.4381  0.5464
  161DOPC   O2222112   6.634   0.734   5.920  0.4514 -0.2802  0.2103
  161DOPC   C2222113   6.623   0.533   5.791 -0.2672 -0.1008 -0.2677
  161DOPC   H2R22114   6.519   0.522   5.827  0.0457 -2.5832  0.0329
  161DOPC   H2S22115   6.667   0.432   5.804 -2.3130 -0.9197  0.6572
  161DOPC    C322116   7.039   0.715   5.869  0.2424 -0.6917 -0.3275
  161DOPC    HX22117   7.065   0.607   5.872  0.5364 -0.5988  1.4284
  161DOPC    HY22118   7.120   0.769   5.922  0.2793  0.3270 -1.4013
  161DOPC   O3122119   7.022   0.760   5.734  0.3882  0.4380 -0.2460
  161DOPC   C3122120   7.129   0.793   5.667  0.0376 -0.2271 -0.3257
  161DOPC   O3222121   7.245   0.791   5.711 -0.2724  0.0719  1.1487
  161DOPC   C3222122   7.089   0.829   5.524  0.1227 -0.5121 -0.2742
  161DOPC   H2X22123   7.017   0.756   5.480 -1.2175  1.9069 -2.3788
  161DOPC   H2Y22124   7.063   0.937   5.521  2.8033  0.3548  2.5004
  161DOPC   C2322125   6.623   0.580   5.645  0.1624  0.3467  0.8719
  161DOPC   H3R22126   6.596   0.687   5.629  1.0062  0.2675 -1.7361
  161DOPC   H3S22127   6.553   0.510   5.594 -0.9714  0.4403  2.2506
  161DOPC   C2422128   6.753   0.566   5.571 -0.3405  0.0640 -0.0669
  161DOPC   H4R22129   6.795   0.464   5.585  1.2474  0.7198  0.1808
  161DOPC   H4S22130   6.823   0.640   5.615 -1.3737 -0.0928  1.9552
  161DOPC   C2522131   6.740   0.562   5.417  0.2662  0.1994 -0.8336
  161DOPC   H5R22132   6.710   0.666   5.391 -0.4894  0.6206  1.4160
  161DOPC   H5S22133   6.656   0.494   5.395  0.8531 -0.4824 -0.9906
  161DOPC   C2622134   6.865   0.511   5.347  0.1822  0.6428  0.0512
  161DOPC   H6R22135   6.855   0.401   5.338 -0.8822  0.7071  0.2936
  161DOPC   H6S22136   6.946   0.538   5.417 -0.8044  1.5082  0.9005
  161DOPC   C2722137   6.887   0.578   5.215  0.2822  0.0001  0.7107
  161DOPC   H7R22138   6.979   0.530   5.177  1.2947  1.8938  0.6762
  161DOPC   H7S22139   6.920   0.683   5.230  1.5047 -0.4496  1.2858
  161DOPC   C2822140   6.772   0.555   5.108  0.4348 -0.4172  0.3880
  161DOPC   H8R22141   6.792   0.613   5.015  0.0066  0.0052  0.5523
  161DOPC   H8S22142   6.677   0.598   5.147 -0.2334  0.3219 -1.8927
  161DOPC   C2922143   6.748   0.408   5.061 -0.2215  0.3491 -0.4798
  161DOPC   H9R22144   6.752   0.352   5.156 -3.1982  1.6600  0.5393
  161DOPC  C21022145   6.750   0.352   4.937  0.0482  0.1597 -0.1307
  161DOPC  H10R22146   6.755   0.243   4.920  3.4273  0.0421  0.9385
  161DOPC  C21122147   6.772   0.429   4.806  0.3764  0.0046 -0.0577
  161DOPC  H11R22148   6.749   0.537   4.815  1.5298  0.1327  1.9978
  161DOPC  H11S22149   6.708   0.381   4.729  0.7109  0.7540 -0.8061
  161DOPC  C21222150   6.915   0.426   4.749 -1.2104  0.0928  0.1727
  161DOPC  H12R22151   6.986   0.452   4.830  2.5081 -2.2918 -2.0036
  161DOPC  H12S22152   6.943   0.492   4.665  0.2514  1.2055  1.4710
  161DOPC  C21322153   6.958   0.285   4.709 -0.1926  0.5567 -0.0446
  161DOPC  H13R22154   6.926   0.219   4.792  2.1601 -0.6046  0.0244
  161DOPC  H13S22155   7.069   0.279   4.705 -0.2083 -0.0855  0.3533
  161DOPC  C21422156   6.887   0.233   4.589 -0.4179 -0.5200  0.5627
  161DOPC  H14R22157   6.910   0.304   4.506 -1.2114  0.1215  0.8808
  161DOPC  H14S22158   6.777   0.245   4.594 -0.4331 -0.8679  1.0811
  161DOPC  C21522159   6.926   0.085   4.556  0.3891  0.6311  0.2637
  161DOPC  H15R22160   7.035   0.089   4.574  0.6478 -0.3456 -0.9316
  161DOPC  H15S22161   6.909   0.064   4.448  1.6891 -2.3372  0.5382
  161DOPC  C21622162   6.858  -0.020   4.645 -0.4832 -0.2486 -0.0050
  161DOPC  H16R22163   6.750   0.003   4.635 -0.9140 -1.5739  1.2559
  161DOPC  H16S22164   6.886  -0.006   4.752 -0.0049 -0.6937 -0.0661
  161DOPC  C21722165   6.889  -0.165   4.611 -0.3216 -0.6275  0.7092
  161DOPC  H17R22166   6.820  -0.186   4.526  0.7800 -2.3078  0.1795
  161DOPC  H17S22167   6.854  -0.233   4.691 -1.2322 -0.7611  0.2154
  161DOPC  C21822168   7.028  -0.198   4.561  0.6849 -0.6174 -0.2406
  161DOPC  H18R22169   7.029  -0.307   4.537 -0.7556 -0.1611 -2.5514
  161DOPC  H18S22170   7.111  -0.180   4.633  1.5935  0.4101 -1.5143
  161DOPC  H18T22171   7.053  -0.149   4.465 -0.9438 -0.7025 -0.7213
  161DOPC   C3322172   7.215   0.817   5.426 -0.6036  0.1550 -0.0632
  161DOPC   H3X22173   7.270   0.722   5.439 -2.2186 -0.7542  0.4086
  161DOPC   H3Y22174   7.285   0.901   5.448 -0.0494 -0.4382  0.4590
  161DOPC   C3422175   7.185   0.824   5.278  0.2796 -0.9026 -0.5673
  161DOPC   H4X22176   7.113   0.743   5.253 -3.8066  1.9415  0.6912
  161DOPC   H4Y22177   7.276   0.814   5.216  0.6001 -0.0430 -0.2603
  161DOPC   C3522178   7.103   0.950   5.242 -0.3938  0.3908 -0.0984
  161DOPC   H5X22179   7.138   1.048   5.280  1.8637 -0.3621 -0.0815
  161DOPC   H5Y22180   7.005   0.943   5.294 -1.7725  0.1419 -2.5702
  161DOPC   C3622181   7.060   0.969   5.091 -0.6749  0.4943 -0.0961
  161DOPC   H6X22182   7.150   0.939   5.034 -0.4494  0.7484  0.1183
  161DOPC   H6Y22183   6.970   0.911   5.064 -0.9306  0.6522  0.4001
  161DOPC   C3722184   7.036   1.118   5.053  0.4519 -0.3788 -0.9110
  161DOPC   H7X22185   6.934   1.130   5.009  0.5751  2.3801 -0.5798
  161DOPC   H7Y22186   7.027   1.184   5.141 -1.4366  0.1310 -1.4391
  161DOPC   C3822187   7.142   1.169   4.951  0.3140  0.5814 -0.2063
  161DOPC   H8X22188   7.243   1.141   4.987  1.2353  1.2802 -2.0698
  161DOPC   H8Y22189   7.144   1.280   4.942 -0.0095  0.6993  0.9912
  161DOPC   C3922190   7.115   1.111   4.808  0.2714 -0.5057 -0.5199
  161DOPC   H9X22191   7.054   1.020   4.796  0.1478 -0.6310  0.8843
  161DOPC  C31022192   7.145   1.167   4.688 -0.4059  0.1813 -0.3290
  161DOPC  H10X22193   7.140   1.101   4.600 -1.3026 -0.1230 -0.0659
  161DOPC  C31122194   7.221   1.294   4.664 -0.4404  0.2826  0.1593
  161DOPC  H11X22195   7.241   1.348   4.759  1.2288  1.1725 -0.6488
  161DOPC  H11Y22196   7.154   1.358   4.602 -0.2259  1.9879  1.6082
  161DOPC  C31222197   7.356   1.278   4.589 -0.1197 -0.3565 -0.6654
  161DOPC  H12X22198   7.419   1.214   4.655  0.2282 -0.1813 -0.8293
  161DOPC  H12Y22199   7.403   1.372   4.555  1.3408 -0.6928  0.3241
  161DOPC  C31322200   7.340   1.210   4.460 -0.1148 -0.0533  0.5091
  161DOPC  H13X22201   7.294   1.110   4.475 -1.3730  0.7676  2.6819
  161DOPC  H13Y22202   7.267   1.272   4.403 -1.6763 -2.2098  0.0497
  161DOPC  C31422203   7.468   1.198   4.377 -1.0002 -0.1465  0.8118
  161DOPC  H14X22204   7.505   1.293   4.335 -2.1701 -0.8382 -2.0710
  161DOPC  H14Y22205   7.552   1.162   4.440 -1.7872 -1.2866  1.2678
  161DOPC  C31522206   7.450   1.100   4.256 -0.0638  0.4725 -0.5327
  161DOPC  H15X22207   7.361   1.139   4.202  1.8621  2.8314 -2.1781
  161DOPC  H15Y22208   7.435   1.002   4.307  0.5017  0.1615 -0.9532
  161DOPC  C31622209   7.565   1.095   4.162 -0.2212  0.6986 -0.2636
  161DOPC  H16X22210   7.614   1.194   4.170 -0.5269  0.7507  1.3394
  161DOPC  H16Y22211   7.643   1.021   4.191 -0.1600  0.5769 -0.7247
  161DOPC  C31722212   7.522   1.076   4.021 -0.0168 -0.0086 -0.3674
  161DOPC  H17X22213   7.474   0.976   4.009 -0.2570  0.1531 -0.7591
  161DOPC  H17Y22214   7.457   1.158   3.984  0.5316  1.6536  2.0865
  161DOPC  C31822215   7.645   1.075   3.928  0.4457  0.3632 -0.2764
  161DOPC  H18X22216   7.694   1.175   3.922  0.1282  0.4854 -1.0391
  161DOPC  H18Y22217   7.719   0.999   3.959  2.0591  1.7736 -0.4884
  161DOPC  H18Z22218   7.613   1.044   3.826 -0.0142 -2.5529  0.6911
  162DOPC     N22219   6.435   2.568   6.488  0.1749  0.5287 -0.1468
  162DOPC   C1222220   6.327   2.463   6.500 -0.2947  0.7475 -0.5105
  162DOPC  H12A22221   6.261   2.483   6.416  2.6564  0.0895 -3.1868
  162DOPC  H12B22222   6.264   2.470   6.587  0.6194  1.5979  0.0962
  162DOPC   C1322223   6.528   2.544   6.600 -0.5295  0.1066 -0.5033
  162DOPC  H13A22224   6.596   2.627   6.611 -1.2233  0.6038  0.1680
  162DOPC  H13B22225   6.473   2.535   6.693  1.7405  0.2128  0.9217
  162DOPC  H13C22226   6.585   2.456   6.577  0.1197  0.5109 -0.4593
  162DOPC   C1422227   6.381   2.706   6.501 -0.1347  0.1102  0.4229
  162DOPC  H14A22228   6.313   2.708   6.585 -1.1873  0.8466 -0.4084
  162DOPC  H14B22229   6.455   2.781   6.525 -0.5134 -0.0564  2.2296
  162DOPC  H14C22230   6.322   2.740   6.417 -0.4962  0.7302  0.9134
  162DOPC   C1522231   6.514   2.549   6.366 -0.1257  0.8591 -0.4283
  162DOPC  H15A22232   6.471   2.607   6.286 -2.0006  4.3248  2.7790
  162DOPC  H15B22233   6.510   2.443   6.345  0.3728  0.7217  0.1416
  162DOPC  H15C22234   6.616   2.586   6.365  0.1429  0.1390 -1.0127
  162DOPC   C1122235   6.372   2.312   6.484  0.0323  0.1766 -0.2227
  162DOPC  H11A22236   6.455   2.286   6.553 -1.0375 -0.3531  0.8958
  162DOPC  H11B22237   6.291   2.249   6.526 -0.1093  0.3895 -0.1746
  162DOPC     P22238   6.289   2.242   6.246 -0.0700  0.1899  0.1321
  162DOPC   O1322239   6.153   2.282   6.296 -0.0788  0.2910  0.5667
  162DOPC   O1422240   6.308   2.105   6.195 -0.1247  0.1854 -0.1125
  162DOPC   O1222241   6.406   2.271   6.349 -0.3240  0.3263 -0.3165
  162DOPC   O1122242   6.322   2.350   6.139  0.4499 -0.2976 -0.0377
  162DOPC    C122243   6.455   2.367   6.074  0.1030 -0.1126 -0.0765
  162DOPC    HA22244   6.537   2.341   6.144  1.6454 -0.5688 -1.9615
  162DOPC    HB22245   6.481   2.475   6.062 -0.0339 -0.1022 -0.2856
  162DOPC    C222246   6.473   2.297   5.935  0.4501  0.4233 -0.5274
  162DOPC    HS22247   6.411   2.359   5.867  1.0292  2.2357  0.5234
  162DOPC   O2122248   6.430   2.159   5.949  0.1487 -0.4240 -0.6124
  162DOPC   C2122249   6.374   2.124   5.834  0.2704  0.1364 -0.2136
  162DOPC   O2222250   6.356   2.194   5.734 -0.2809 -0.6709  0.7307
  162DOPC   C2222251   6.336   1.980   5.848 -0.4065 -0.2583 -0.1378
  162DOPC   H2R22252   6.264   1.965   5.932 -0.8404  2.1869  0.0027
  162DOPC   H2S22253   6.427   1.922   5.875  1.0601  2.9483  2.6387
  162DOPC    C322254   6.622   2.300   5.898  0.4169  0.3787 -0.2524
  162DOPC    HX22255   6.675   2.247   5.979  1.4163  0.3625 -0.9000
  162DOPC    HY22256   6.666   2.400   5.912 -0.4308  0.5226  1.6680
  162DOPC   O3122257   6.643   2.228   5.779 -0.1482 -0.1646 -0.3080
  162DOPC   C3122258   6.641   2.308   5.676  0.3140  0.2417 -0.5738
  162DOPC   O3222259   6.607   2.426   5.679  0.3282 -0.4033  0.0582
  162DOPC   C3222260   6.676   2.222   5.550 -0.4815  0.2167  0.0672
  162DOPC   H2X22261   6.670   2.293   5.465  1.6304  0.0782 -0.2313
  162DOPC   H2Y22262   6.773   2.170   5.561 -0.6451 -0.2919 -0.7727
  162DOPC   C2322263   6.255   1.924   5.729  0.1105  0.2335 -0.8618
  162DOPC   H3R22264   6.316   1.939   5.637  0.2135 -0.1235 -0.8535
  162DOPC   H3S22265   6.156   1.974   5.726 -0.0149  0.0075 -0.5287
  162DOPC   C2422266   6.249   1.771   5.755  0.4025 -0.1596 -0.1626
  162DOPC   H4R22267   6.232   1.757   5.864 -1.2751 -2.6064 -0.6367
  162DOPC   H4S22268   6.353   1.737   5.739  1.5023  1.5683  2.6097
  162DOPC   C2522269   6.137   1.701   5.674 -0.1170  0.6711  0.0089
  162DOPC   H5R22270   6.145   1.748   5.574 -1.2466 -0.8557 -0.8440
  162DOPC   H5S22271   6.034   1.715   5.712 -0.0723 -0.5929  0.6484
  162DOPC   C2622272   6.150   1.547   5.666  0.4492  0.0083  0.0730
  162DOPC   H6R22273   6.127   1.505   5.766  0.4451 -1.1376 -0.4045
  162DOPC   H6S22274   6.250   1.521   5.626  0.2117  1.5325 -1.6944
  162DOPC   C2722275   6.043   1.496   5.575  0.0933  0.1231  0.3287
  162DOPC   H7R22276   6.068   1.530   5.472  1.2695  3.2274  1.4974
  162DOPC   H7S22277   5.945   1.544   5.597 -0.4649 -1.5695  1.7597
  162DOPC   C2822278   6.025   1.343   5.590 -0.3674  0.2204 -0.1310
  162DOPC   H8R22279   5.922   1.319   5.557  0.1908  0.0484 -1.8899
  162DOPC   H8S22280   6.025   1.313   5.697 -1.3727 -0.9166 -0.4274
  162DOPC   C2922281   6.130   1.256   5.519 -0.2666 -0.5413 -0.2086
  162DOPC   H9R22282   6.230   1.265   5.564 -0.8333  0.5646  0.9044
  162DOPC  C21022283   6.123   1.176   5.419 -0.1389  0.5790 -0.0307
  162DOPC  H10R22284   6.210   1.115   5.389  2.2744  4.6036 -2.0634
  162DOPC  C21122285   5.986   1.148   5.350 -0.4440  0.6146 -0.0271
  162DOPC  H11R22286   5.902   1.194   5.406 -1.0795 -0.2824 -0.2455
  162DOPC  H11S22287   5.962   1.040   5.345 -2.0845  1.0051 -1.6283
  162DOPC  C21222288   5.983   1.221   5.211 -0.1449  0.1483 -0.1050
  162DOPC  H12R22289   5.994   1.329   5.232 -1.2088  0.7519 -2.4051
  162DOPC  H12S22290   5.879   1.197   5.178  0.4018 -1.9693 -0.4536
  162DOPC  C21322291   6.099   1.193   5.104  0.3215  0.0427 -0.4518
  162DOPC  H13R22292   6.195   1.228   5.148 -0.5756 -0.0988  1.7464
  162DOPC  H13S22293   6.097   1.266   5.020  2.8179  1.9645  1.0077
  162DOPC  C21422294   6.098   1.052   5.052  0.2558 -0.4309 -0.6364
  162DOPC  H14R22295   5.999   1.037   5.004  0.4601  0.1684 -1.2706
  162DOPC  H14S22296   6.093   0.975   5.132  0.2152 -1.2691 -1.4182
  162DOPC  C21522297   6.210   1.026   4.955 -0.0091 -0.1273 -0.2190
  162DOPC  H15R22298   6.303   0.996   5.008 -0.3183  0.2803  0.5714
  162DOPC  H15S22299   6.235   1.118   4.899  0.1200 -1.4299 -2.3952
  162DOPC  C21622300   6.170   0.931   4.840  0.3434 -0.6528 -0.4143
  162DOPC  H16R22301   6.101   0.993   4.778  0.2450  0.8548  1.1364
  162DOPC  H16S22302   6.110   0.845   4.877 -0.8977  0.3874  0.0841
  162DOPC  C21722303   6.280   0.883   4.752  0.0260 -0.0405  0.4951
  162DOPC  H17R22304   6.319   0.783   4.783 -0.4535  0.3238  2.4072
  162DOPC  H17S22305   6.360   0.960   4.758 -0.7688  0.7945  0.5113
  162DOPC  C21822306   6.243   0.865   4.598 -0.0753 -0.4806 -0.2345
  162DOPC  H18R22307   6.210   0.966   4.565  1.2747 -0.9458 -3.3015
  162DOPC  H18S22308   6.168   0.785   4.582  0.5740 -1.0716 -0.4000
  162DOPC  H18T22309   6.343   0.849   4.552  2.0272  3.2378  2.4099
  162DOPC   C3322310   6.569   2.115   5.515 -0.3770 -0.0760  0.8804
  162DOPC   H3X22311   6.468   2.157   5.497 -0.5535  0.6146  3.1114
  162DOPC   H3Y22312   6.562   2.053   5.608  0.0977 -1.2878  0.1319
  162DOPC   C3422313   6.612   2.031   5.395  1.3636  0.0940  0.4433
  162DOPC   H4X22314   6.525   1.963   5.378 -0.2670  1.7095  1.8111
  162DOPC   H4Y22315   6.708   1.981   5.420  0.8601 -1.0880  0.1126
  162DOPC   C3522316   6.628   2.103   5.265  0.0043  0.1229  0.3966
  162DOPC   H5X22317   6.710   2.176   5.250  0.4907 -0.3440  0.7577
  162DOPC   H5Y22318   6.540   2.170   5.250 -0.0318 -0.1590 -0.7418
  162DOPC   C3622319   6.645   2.013   5.138  0.0400 -0.1090  0.8721
  162DOPC   H6X22320   6.738   1.952   5.138 -0.2813 -0.6308 -0.2436
  162DOPC   H6Y22321   6.553   1.956   5.116 -0.3684  1.1879 -1.1213
  162DOPC   C3722322   6.639   2.101   5.002  0.1823  0.0483  0.4319
  162DOPC   H7X22323   6.545   2.157   4.983  1.9574  2.6273 -1.3895
  162DOPC   H7Y22324   6.716   2.180   5.010  0.0682  0.0240  1.9522
  162DOPC   C3822325   6.667   2.005   4.880  0.6892 -0.5078  0.2005
  162DOPC   H8X22326   6.758   1.948   4.908  0.4174 -0.3195  1.5521
  162DOPC   H8Y22327   6.691   2.056   4.784 -0.2966  0.2367  0.3304
  162DOPC   C3922328   6.546   1.920   4.859  0.0239  0.0356 -0.5680
  162DOPC   H9X22329   6.541   1.830   4.922  0.8667 -0.3481 -1.0261
  162DOPC  C31022330   6.443   1.950   4.776  0.0914  0.7469 -1.3605
  162DOPC  H10X22331   6.380   1.865   4.745 -0.3547 -0.6956  2.8528
  162DOPC  C31122332   6.417   2.083   4.713  0.2287  0.3723  0.1826
  162DOPC  H11X22333   6.479   2.167   4.751  0.1004  1.0577 -1.0564
  162DOPC  H11Y22334   6.316   2.124   4.735  0.5195 -0.2345  2.9532
  162DOPC  C31222335   6.444   2.084   4.563  0.0460  0.0997  0.3029
  162DOPC  H12X22336   6.375   2.013   4.512  2.1480 -1.7510 -0.1231
  162DOPC  H12Y22337   6.549   2.060   4.537  0.3945  0.2138  1.5613
  162DOPC  C31322338   6.422   2.218   4.498 -0.1860 -0.4024  0.5784
  162DOPC  H13X22339   6.447   2.217   4.389  0.9407 -0.0843  0.8226
  162DOPC  H13Y22340   6.314   2.243   4.510 -0.6460 -1.6582 -0.6204
  162DOPC  C31422341   6.508   2.327   4.562 -0.1866 -0.3342  0.1570
  162DOPC  H14X22342   6.462   2.350   4.660 -2.0758  0.7244 -0.9183
  162DOPC  H14Y22343   6.608   2.282   4.574 -0.3458 -0.5739  0.5938
  162DOPC  C31522344   6.512   2.451   4.473  0.4555 -0.3641 -0.5489
  162DOPC  H15X22345   6.410   2.494   4.469  0.6771  0.2787  0.3602
  162DOPC  H15Y22346   6.537   2.430   4.367 -2.3459 -1.3485 -1.1028
  162DOPC  C31622347   6.599   2.559   4.529  0.2152  0.8338  0.0198
  162DOPC  H16X22348   6.542   2.591   4.619 -3.2765 -1.1565 -1.3114
  162DOPC  H16Y22349   6.689   2.507   4.569 -0.3485 -0.0126  0.2091
  162DOPC  C31722350   6.607   2.693   4.446 -0.1653 -0.0377 -0.1482
  162DOPC  H17X22351   6.676   2.768   4.492  1.0532 -0.8300 -0.6436
  162DOPC  H17Y22352   6.652   2.672   4.346 -0.6524 -0.9238 -0.1829
  162DOPC  C31822353   6.464   2.750   4.406  0.0379  0.4257 -0.6519
  162DOPC  H18X22354   6.407   2.771   4.499  1.5016 -1.5023  0.7825
  162DOPC  H18Y22355   6.478   2.841   4.344  1.8197 -1.2827 -2.9409
  162DOPC  H18Z22356   6.406   2.677   4.346 -1.2856  1.3156 -0.5094
  163DOPC     N22357  10.248   0.406   6.635  0.5442 -0.7614  0.3156
  163DOPC   C1222358  10.098   0.422   6.647 -0.3910 -0.3315 -0.1214
  163DOPC  H12A22359  10.065   0.429   6.749  0.4745  2.8461  0.0331
  163DOPC  H12B22360  10.048   0.335   6.605 -1.2476  0.7231 -1.3717
  163DOPC   C1322361  10.283   0.379   6.492 -0.1580  0.9751  0.0062
  163DOPC  H13A22362  10.229   0.298   6.446  0.9388  0.1560  0.1111
  163DOPC  H13B22363  10.293   0.469   6.434  0.0009  0.1853 -1.2175
  163DOPC  H13C22364  10.383   0.339   6.499 -0.2293  0.4074 -1.8381
  163DOPC   C1422365  10.287   0.291   6.722  0.4832 -0.6938 -0.4921
  163DOPC  H14A22366  10.229   0.204   6.696 -1.0007  0.2130 -0.3265
  163DOPC  H14B22367  10.392   0.270   6.708  0.8576  1.3499 -1.2234
  163DOPC  H14C22368  10.264   0.311   6.826 -2.0669 -2.1940 -0.6847
  163DOPC   C1522369  10.321   0.528   6.684  0.3856 -0.2404 -0.3892
  163DOPC  H15A22370  10.307   0.618   6.626 -0.3691  0.7510  1.2514
  163DOPC  H15B22371  10.425   0.501   6.680  0.5133  0.2023 -0.1111
  163DOPC  H15C22372  10.292   0.548   6.786 -2.1808  1.0130 -1.2629
  163DOPC   C1122373  10.036   0.546   6.581  0.3982  0.1580  0.1197
  163DOPC  H11A22374   9.928   0.559   6.603 -0.3072 -0.4774 -2.6090
  163DOPC  H11B22375  10.079   0.636   6.630  1.6352 -1.7747  2.8464
  163DOPC     P22376   9.947   0.513   6.341 -0.3590 -0.1827  0.0014
  163DOPC   O1322377   9.851   0.417   6.406 -0.4171  0.0854 -0.2152
  163DOPC   O1422378  10.012   0.457   6.221  0.4370  0.1664 -0.2469
  163DOPC   O1222379  10.064   0.550   6.440  0.2251 -0.1028 -0.2411
  163DOPC   O1122380   9.882   0.648   6.302  0.5779 -0.5739 -0.2981
  163DOPC    C122381   9.953   0.739   6.209 -0.3035 -0.5562 -1.2019
  163DOPC    HA22382  10.064   0.747   6.204 -0.4590  1.9291 -1.8648
  163DOPC    HB22383   9.910   0.837   6.237  0.2533 -1.2747  2.6838
  163DOPC    C222384   9.923   0.706   6.068  0.3263 -0.6089 -0.3906
  163DOPC    HS22385   9.976   0.610   6.048  0.2368 -0.6603 -0.3841
  163DOPC   O2122386   9.961   0.812   5.980 -0.5190  0.3752  0.5834
  163DOPC   C2122387  10.086   0.814   5.936 -0.1445  0.2571  0.1765
  163DOPC   O2222388  10.176   0.734   5.965  0.4564 -0.3373 -0.0548
  163DOPC   C2222389  10.099   0.929   5.831  0.0217 -0.1971  0.5294
  163DOPC   H2R22390  10.052   1.017   5.879 -0.8969 -1.9030  2.9160
  163DOPC   H2S22391  10.030   0.900   5.748 -0.0460 -1.8617  1.1389
  163DOPC    C322392   9.769   0.675   6.044 -0.0092  0.1714  0.4737
  163DOPC    HX22393   9.727   0.766   6.090 -0.7176  0.1822 -0.1586
  163DOPC    HY22394   9.731   0.584   6.095  0.2290 -0.6711 -0.7954
  163DOPC   O3122395   9.738   0.686   5.905 -0.1467  0.5550  0.2508
  163DOPC   C3122396   9.728   0.563   5.843  0.4144 -0.3554  0.1480
  163DOPC   O3222397   9.755   0.455   5.896  0.4008 -1.2238  0.4071
  163DOPC   C3222398   9.673   0.585   5.701 -0.6170 -0.3373  0.1626
  163DOPC   H2X22399   9.624   0.491   5.667  1.4295 -2.0302  1.6373
  163DOPC   H2Y22400   9.601   0.669   5.697 -0.4424 -0.2228 -1.4026
  163DOPC   C2322401  10.245   0.944   5.773  0.3397  0.0627 -0.1686
  163DOPC   H3R22402  10.290   0.845   5.751  1.1828  0.2096  0.8050
  163DOPC   H3S22403  10.300   1.005   5.848  0.5989  0.0218 -0.3265
  163DOPC   C2422404  10.231   1.021   5.644 -0.5411 -0.2845  0.1604
  163DOPC   H4R22405  10.328   1.064   5.612 -1.0473 -0.1290 -1.2270
  163DOPC   H4S22406  10.150   1.096   5.653  0.4585  0.8608 -0.2438
  163DOPC   C2522407  10.194   0.919   5.525 -0.6487 -0.2989  0.4831
  163DOPC   H5R22408  10.108   0.856   5.553 -2.2911  1.0852 -1.2023
  163DOPC   H5S22409  10.279   0.847   5.519  0.2119  0.5597  1.6750
  163DOPC   C2622410  10.175   0.980   5.388 -0.3543 -0.2556 -0.3135
  163DOPC   H6R22411  10.164   0.900   5.312 -1.9899  0.6002 -1.0352
  163DOPC   H6S22412  10.256   1.044   5.348 -0.6041  0.6540  0.5883
  163DOPC   C2722413  10.047   1.063   5.387 -0.4736 -0.4946  0.0598
  163DOPC   H7R22414  10.051   1.142   5.465  1.2231 -0.6721  0.1924
  163DOPC   H7S22415   9.965   0.998   5.424 -0.7828  0.0342  0.3042
  163DOPC   C2822416  10.010   1.106   5.241 -0.3494 -0.1145 -0.0847
  163DOPC   H8R22417  10.011   1.015   5.176 -3.2127 -0.0272 -0.3651
  163DOPC   H8S22418  10.085   1.177   5.200  0.0824 -0.5971 -0.1388
  163DOPC   C2922419   9.874   1.163   5.239 -0.2954 -1.0847  0.2368
  163DOPC   H9R22420   9.796   1.100   5.284 -3.8533 -0.0393 -3.8638
  163DOPC  C21022421   9.832   1.285   5.202 -0.1915 -0.1807  0.1341
  163DOPC  H10R22422   9.726   1.314   5.206  0.4285  2.2038  1.5860
  163DOPC  C21122423   9.927   1.398   5.167  0.0569 -0.5757  0.1863
  163DOPC  H11R22424  10.009   1.415   5.241 -1.4842  0.1837  1.7974
  163DOPC  H11S22425   9.866   1.490   5.170 -1.1451 -1.2833 -1.2776
  163DOPC  C21222426   9.981   1.374   5.031  0.1292 -0.1344  0.5232
  163DOPC  H12R22427  10.049   1.289   5.009  0.4804  0.2622  0.0497
  163DOPC  H12S22428  10.051   1.459   5.013  1.2507 -0.6232  2.2696
  163DOPC  C21322429   9.875   1.389   4.919  0.3097  0.2066  0.8107
  163DOPC  H13R22430   9.798   1.311   4.938  1.5087 -1.5360 -1.1220
  163DOPC  H13S22431   9.908   1.343   4.823 -1.2065  0.9446 -0.1032
  163DOPC  C21422432   9.816   1.527   4.895  0.9178  0.0444 -1.0735
  163DOPC  H14R22433   9.902   1.582   4.851  2.6412  0.2809  2.2595
  163DOPC  H14S22434   9.785   1.575   4.990  1.0989 -1.5751 -0.1670
  163DOPC  C21522435   9.692   1.531   4.807 -0.5523 -0.3807 -0.1714
  163DOPC  H15R22436   9.606   1.481   4.856 -0.6644 -1.8225 -1.7717
  163DOPC  H15S22437   9.712   1.468   4.718 -0.6694 -1.0996  0.3011
  163DOPC  C21622438   9.644   1.667   4.768  0.3412  0.1096  0.7416
  163DOPC  H16R22439   9.651   1.738   4.854  1.7495  0.9933 -0.0591
  163DOPC  H16S22440   9.543   1.651   4.725 -0.4061  2.8548  1.2602
  163DOPC  C21722441   9.720   1.709   4.637  0.1748  0.4928  0.0723
  163DOPC  H17R22442   9.694   1.637   4.556 -2.4172 -1.2843  2.3022
  163DOPC  H17S22443   9.829   1.706   4.658  0.6151  1.5264 -1.7714
  163DOPC  C21822444   9.684   1.850   4.589 -0.2991  0.2495 -0.1050
  163DOPC  H18R22445   9.574   1.850   4.573 -0.2756  0.5184 -0.2733
  163DOPC  H18S22446   9.742   1.883   4.500 -2.5829  1.0899 -1.3643
  163DOPC  H18T22447   9.707   1.919   4.673 -0.3242  0.6001 -0.3828
  163DOPC   C3322448   9.795   0.591   5.603  0.3517 -0.4423 -0.3462
  163DOPC   H3X22449   9.856   0.499   5.615 -0.5314 -0.8734  1.1389
  163DOPC   H3Y22450   9.849   0.684   5.631 -0.4305 -0.3207  0.8583
  163DOPC   C3422451   9.764   0.592   5.455  0.7220  0.2641  0.1640
  163DOPC   H4X22452   9.685   0.665   5.429 -2.3787 -1.6459  3.2908
  163DOPC   H4Y22453   9.713   0.496   5.432  3.1468 -1.6936  2.2929
  163DOPC   C3522454   9.881   0.616   5.351 -0.6045  0.6354 -0.1426
  163DOPC   H5X22455   9.941   0.523   5.346  1.0284  1.6680 -0.6420
  163DOPC   H5Y22456   9.943   0.706   5.372 -2.1944  1.9339 -0.6903
  163DOPC   C3622457   9.816   0.639   5.212  0.1930 -0.0957 -0.1802
  163DOPC   H6X22458   9.759   0.547   5.187 -0.2826 -0.0057  0.5420
  163DOPC   H6Y22459   9.746   0.725   5.215 -0.2475 -0.3975 -1.2613
  163DOPC   C3722460   9.934   0.668   5.114  0.3058 -0.4448 -0.6221
  163DOPC   H7X22461  10.012   0.733   5.159  1.1493 -1.2309 -0.9179
  163DOPC   H7Y22462   9.984   0.571   5.095 -1.5650 -1.9067  1.5240
  163DOPC   C3822463   9.888   0.731   4.976  0.2136 -0.7249  0.6401
  163DOPC   H8X22464   9.804   0.803   4.983  0.4619  0.0062 -2.5808
  163DOPC   H8Y22465   9.864   0.640   4.916  0.4018  0.7929 -1.8837
  163DOPC   C3922466  10.008   0.802   4.905 -0.2912 -0.5515  0.0365
  163DOPC   H9X22467  10.083   0.732   4.864 -1.9550 -2.8448  0.6703
  163DOPC  C31022468  10.013   0.928   4.866  0.1153 -0.2788  0.1581
  163DOPC  H10X22469  10.107   0.961   4.820  1.0287 -0.7137  1.6727
  163DOPC  C31122470   9.902   1.034   4.875  0.4107  0.3675  0.0571
  163DOPC  H11X22471   9.949   1.127   4.915  0.9995  0.1131 -0.0332
  163DOPC  H11Y22472   9.815   1.014   4.941 -0.3746  2.1264 -0.3649
  163DOPC  C31222473   9.822   1.072   4.745 -0.4081  0.1775  0.0487
  163DOPC  H12X22474   9.890   1.079   4.657 -0.3084  0.1267  0.1222
  163DOPC  H12Y22475   9.763   1.166   4.741  0.7701  0.9335 -0.1686
  163DOPC  C31322476   9.714   0.962   4.715  0.0554  0.3037 -0.3800
  163DOPC  H13X22477   9.759   0.884   4.651  2.5569  0.9790  0.4648
  163DOPC  H13Y22478   9.676   0.907   4.804  1.2889  0.1485  0.0612
  163DOPC  C31422479   9.593   1.028   4.635  0.0590  0.0371 -0.3208
  163DOPC  H14X22480   9.534   1.099   4.696  0.5376  1.4554 -1.4470
  163DOPC  H14Y22481   9.627   1.090   4.549 -0.1202  4.2913  2.3431
  163DOPC  C31522482   9.495   0.923   4.581 -0.2881 -0.3813 -0.5270
  163DOPC  H15X22483   9.468   0.850   4.660 -0.4085 -0.7341 -0.8892
  163DOPC  H15Y22484   9.553   0.871   4.502  0.4545  0.4687 -0.5576
  163DOPC  C31622485   9.381   0.986   4.500 -0.1151 -0.1362 -0.8009
  163DOPC  H16X22486   9.328   1.056   4.568  0.5338  0.5120 -0.9487
  163DOPC  H16Y22487   9.427   1.043   4.416  1.7711  1.3304  1.1348
  163DOPC  C31722488   9.281   0.886   4.442 -0.0844  0.1004  0.3128
  163DOPC  H17X22489   9.291   0.789   4.497  1.4585 -0.3237 -0.6616
  163DOPC  H17Y22490   9.183   0.932   4.467  0.6803  2.7448 -1.1803
  163DOPC  C31822491   9.284   0.870   4.287  0.3649  0.0522 -1.1560
  163DOPC  H18X22492   9.374   0.821   4.244  0.9311  1.7910 -2.0099
  163DOPC  H18Y22493   9.189   0.825   4.250 -0.3931 -0.5976  1.3212
  163DOPC  H18Z22494   9.287   0.973   4.247 -0.7732 -0.0293 -1.4964
  164DOPC     N22495   1.487   5.702   5.441 -0.0324 -0.3860  0.0076
  164DOPC   C1222496   1.344   5.720   5.394  0.2182  0.2776  0.0486
  164DOPC  H12A22497   1.329   5.656   5.309  1.9516  0.0353 -0.1167
  164DOPC  H12B22498   1.338   5.824   5.365  2.9902  0.3493 -0.5679
  164DOPC   C1322499   1.509   5.783   5.562 -0.1175 -0.2789 -0.4529
  164DOPC  H13A22500   1.446   5.870   5.557 -0.3961 -0.4850 -0.5357
  164DOPC  H13B22501   1.480   5.727   5.650  0.1627  2.2678  1.3550
  164DOPC  H13C22502   1.614   5.806   5.577  0.1003 -2.1408  1.3108
  164DOPC   C1422503   1.579   5.754   5.328 -0.1003  0.4822  0.3217
  164DOPC  H14A22504   1.575   5.677   5.252 -1.6619  0.0003  0.8674
  164DOPC  H14B22505   1.545   5.850   5.290  1.1647  1.6171  1.9156
  164DOPC  H14C22506   1.671   5.781   5.378 -0.2280  0.2056  0.7057
  164DOPC   C1522507   1.526   5.561   5.476  0.3400  0.3523  0.3894
  164DOPC  H15A22508   1.627   5.559   5.514  0.9723  2.0750 -1.0000
  164DOPC  H15B22509   1.521   5.485   5.400  1.0097 -1.1244  1.7730
  164DOPC  H15C22510   1.457   5.535   5.554 -1.7950 -0.5578 -1.6846
  164DOPC   C1122511   1.226   5.701   5.503  0.0257  0.4578 -0.1843
  164DOPC  H11A22512   1.256   5.761   5.591 -2.4027 -1.9571  2.4768
  164DOPC  H11B22513   1.124   5.732   5.469 -0.1785  0.3380  0.3095
  164DOPC     P22514   1.178   5.451   5.442  0.0139  0.4074 -0.1283
  164DOPC   O1322515   1.026   5.437   5.437 -0.5463 -0.1078  0.2774
  164DOPC   O1422516   1.247   5.333   5.485 -0.1420  0.0252 -0.3819
  164DOPC   O1222517   1.209   5.570   5.544  0.5773  0.2367 -0.5547
  164DOPC   O1122518   1.238   5.493   5.296 -0.7304 -0.0210  0.2650
  164DOPC    C122519   1.156   5.484   5.179 -0.0659 -0.2710  0.0929
  164DOPC    HA22520   1.068   5.547   5.203  1.8005  2.6865 -0.1949
  164DOPC    HB22521   1.123   5.383   5.146  0.3659 -0.5144  0.3950
  164DOPC    C222522   1.234   5.545   5.065 -0.3425  0.1750  0.4305
  164DOPC    HS22523   1.301   5.625   5.102  0.1410 -0.3462  0.6871
  164DOPC   O2122524   1.140   5.592   4.958  0.0651  0.1196  0.3592
  164DOPC   C2122525   1.060   5.691   5.006  0.1758 -0.4244 -0.3827
  164DOPC   O2222526   1.082   5.750   5.108  0.0546 -0.4281 -0.0849
  164DOPC   C2222527   0.938   5.712   4.911 -0.2190 -0.4531  0.2078
  164DOPC   H2R22528   0.868   5.630   4.939  0.9605 -1.4593  0.3181
  164DOPC   H2S22529   0.977   5.684   4.811  0.2159 -2.1614  0.8055
  164DOPC    C322530   1.330   5.441   5.003 -0.1431 -0.4784  0.1534
  164DOPC    HX22531   1.267   5.368   4.948  2.4945 -0.3281 -3.4185
  164DOPC    HY22532   1.392   5.389   5.080 -0.4886 -1.9068 -0.4869
  164DOPC   O3122533   1.414   5.501   4.904  0.0009  0.5040 -0.0454
  164DOPC   C3122534   1.539   5.528   4.941  0.7705 -0.2774  0.2508
  164DOPC   O3222535   1.582   5.516   5.054  0.3040 -0.0525 -0.0383
  164DOPC   C3222536   1.611   5.596   4.825  0.0303  0.0440 -0.5279
  164DOPC   H2X22537   1.531   5.650   4.770 -0.2524  0.8361  0.6334
  164DOPC   H2Y22538   1.678   5.672   4.870  1.3245 -1.4298  0.1084
  164DOPC   C2322539   0.887   5.851   4.922  0.2179 -0.6288 -0.0073
  164DOPC   H3R22540   0.945   5.917   4.855 -1.1672  1.4151  0.7034
  164DOPC   H3S22541   0.893   5.910   5.016 -0.8486  1.1378 -0.9984
  164DOPC   C2422542   0.737   5.862   4.884  0.6280 -0.2928  0.2869
  164DOPC   H4R22543   0.717   5.968   4.858  0.9634 -0.1044  0.7981
  164DOPC   H4S22544   0.671   5.833   4.969 -0.2489  2.4639  0.6358
  164DOPC   C2522545   0.687   5.777   4.764 -0.2195  0.1365 -0.3835
  164DOPC   H5R22546   0.685   5.667   4.777  1.6345 -0.2408 -2.6064
  164DOPC   H5S22547   0.754   5.793   4.677  0.3298  1.4397  0.2403
  164DOPC   C2622548   0.552   5.820   4.707  0.4582  0.1812  0.0674
  164DOPC   H6R22549   0.518   5.748   4.630  1.4504  0.5733 -0.7556
  164DOPC   H6S22550   0.554   5.919   4.656 -2.5834  0.1965 -0.2357
  164DOPC   C2722551   0.437   5.816   4.814 -0.3255  0.1952  0.8669
  164DOPC   H7R22552   0.449   5.874   4.908 -0.2032  0.9859  0.3707
  164DOPC   H7S22553   0.434   5.708   4.840  0.6548 -0.6892 -2.2988
  164DOPC   C2822554   0.292   5.849   4.757  0.2531  0.2935 -0.0459
  164DOPC   H8R22555   0.225   5.819   4.840  0.9345  0.2004  0.4766
  164DOPC   H8S22556   0.272   5.779   4.673  0.6568  1.4821 -1.1515
  164DOPC   C2922557   0.275   5.998   4.746 -0.8108  0.3379 -0.0657
  164DOPC   H9R22558   0.311   6.051   4.836 -1.4306  2.9510 -1.2447
  164DOPC  C21022559   0.245   6.076   4.637 -0.4504 -0.3208  0.2847
  164DOPC  H10R22560   0.231   6.183   4.659  0.3157 -0.1181 -0.1992
  164DOPC  C21122561   0.225   6.023   4.498  0.6312 -0.4110 -0.2731
  164DOPC  H11R22562   0.224   5.912   4.490  0.3481 -0.4224 -0.0968
  164DOPC  H11S22563   0.320   6.056   4.450  0.5424  1.4771  0.7435
  164DOPC  C21222564   0.099   6.072   4.426  0.0912 -0.5643  0.1480
  164DOPC  H12R22565   0.085   6.180   4.448  1.3600 -0.0385 -1.3578
  164DOPC  H12S22566   0.020   6.014   4.478 -0.1820  1.0120  1.5636
  164DOPC  C21322567   0.113   6.046   4.271 -0.0247 -0.1595  0.3234
  164DOPC  H13R22568   0.110   5.936   4.265 -1.4795 -0.1141 -0.4613
  164DOPC  H13S22569   0.211   6.077   4.228 -1.2555 -0.1335 -2.7297
  164DOPC  C21422570  -0.003   6.106   4.191  0.1448  0.3365 -0.0293
  164DOPC  H14R22571  -0.030   6.213   4.206  0.0885  0.4774 -1.0671
  164DOPC  H14S22572  -0.090   6.039   4.213 -0.0222 -0.0129 -1.6541
  164DOPC  C21522573   0.023   6.094   4.040 -0.3217 -0.3494 -0.4405
  164DOPC  H15R22574   0.019   5.989   4.004  0.0286 -0.4013 -0.3289
  164DOPC  H15S22575   0.123   6.137   4.017 -0.1657 -0.0332  0.7645
  164DOPC  C21622576  -0.087   6.170   3.962 -0.2642 -0.6951  0.0255
  164DOPC  H16R22577  -0.082   6.277   3.992  1.6971 -0.1506 -1.9830
  164DOPC  H16S22578  -0.188   6.136   3.991 -0.7095 -0.4696 -1.2327
  164DOPC  C21722579  -0.061   6.158   3.810  0.1004 -0.2565  0.6319
  164DOPC  H17R22580  -0.046   6.048   3.796 -0.1058 -0.0625 -1.5798
  164DOPC  H17S22581   0.032   6.217   3.800  1.3787 -2.0437  1.3909
  164DOPC  C21822582  -0.177   6.200   3.718 -0.3319 -0.7587  0.4128
  164DOPC  H18R22583  -0.158   6.188   3.609  0.5665  2.2219  0.1481
  164DOPC  H18S22584  -0.182   6.311   3.727  1.0273 -0.5226 -1.1549
  164DOPC  H18T22585  -0.276   6.160   3.749 -0.9276  0.8550  0.6770
  164DOPC   C3322586   1.694   5.499   4.753  0.7709 -0.1694  0.1361
  164DOPC   H3X22587   1.635   5.419   4.702 -0.2371  1.1145 -0.7672
  164DOPC   H3Y22588   1.769   5.450   4.820  0.2330  0.0074  0.8850
  164DOPC   C3422589   1.769   5.566   4.630 -0.6655  0.7362 -0.7334
  164DOPC   H4X22590   1.845   5.638   4.669 -0.3566  0.3052 -0.5378
  164DOPC   H4Y22591   1.701   5.628   4.568 -0.0859  0.9759 -1.1372
  164DOPC   C3522592   1.850   5.464   4.548  0.4568 -0.1308  0.0010
  164DOPC   H5X22593   1.793   5.382   4.499  0.5507 -0.2744  0.1310
  164DOPC   H5Y22594   1.926   5.415   4.613  2.7001 -1.7829 -3.5415
  164DOPC   C3622595   1.932   5.535   4.441  0.2138  0.2173  0.1898
  164DOPC   H6X22596   1.870   5.608   4.385  1.2676  0.5402 -0.5956
  164DOPC   H6Y22597   2.013   5.590   4.494  0.4476  2.4183 -2.2355
  164DOPC   C3722598   1.989   5.438   4.337 -0.3314 -0.0174 -0.6996
  164DOPC   H7X22599   2.059   5.373   4.392  1.6733  1.3441 -1.5027
  164DOPC   H7Y22600   1.910   5.372   4.295 -0.4125  0.1910 -0.8799
  164DOPC   C3822601   2.046   5.502   4.211  0.3192 -0.7429  0.0249
  164DOPC   H8X22602   1.987   5.595   4.193  0.8511 -0.6461 -1.3841
  164DOPC   H8Y22603   2.039   5.436   4.122 -0.8969 -2.9597  1.6624
  164DOPC   C3922604   2.185   5.550   4.236  0.0411  0.4520  0.1578
  164DOPC   H9X22605   2.251   5.463   4.224  1.1971  1.3027  0.1859
  164DOPC  C31022606   2.234   5.668   4.264  0.3560 -0.1039  0.0129
  164DOPC  H10X22607   2.343   5.670   4.274  0.4347  0.3283 -0.8495
  164DOPC  C31122608   2.154   5.793   4.288 -0.4776  0.1856  0.0333
  164DOPC  H11X22609   2.047   5.768   4.306 -1.1062 -0.2943 -3.6086
  164DOPC  H11Y22610   2.154   5.849   4.192 -0.1419 -0.8005 -0.5529
  164DOPC  C31222611   2.213   5.872   4.403  0.4278  0.1582  0.1656
  164DOPC  H12X22612   2.210   5.801   4.488  0.4914  2.7446  2.4832
  164DOPC  H12Y22613   2.148   5.955   4.436 -1.1274 -1.3693  1.0977
  164DOPC  C31322614   2.359   5.917   4.388  0.6614  0.5109 -0.2009
  164DOPC  H13X22615   2.390   5.932   4.493 -1.5502 -0.2019  0.6023
  164DOPC  H13Y22616   2.417   5.832   4.347 -1.6035 -0.9956 -0.4828
  164DOPC  C31422617   2.381   6.031   4.288  0.1429 -0.6386 -0.0912
  164DOPC  H14X22618   2.330   6.017   4.191 -0.2388  0.4851 -0.0663
  164DOPC  H14Y22619   2.350   6.132   4.324  2.0200 -0.3413  0.8263
  164DOPC  C31522620   2.531   6.043   4.244 -0.1092 -0.6833 -0.8090
  164DOPC  H15X22621   2.573   5.943   4.219  2.1772 -0.9076  3.0761
  164DOPC  H15Y22622   2.592   6.075   4.331 -1.2259 -1.0602  0.1268
  164DOPC  C31622623   2.559   6.143   4.130  0.0098 -0.0143 -0.2396
  164DOPC  H16X22624   2.661   6.135   4.087 -0.2658  0.7490 -1.0468
  164DOPC  H16Y22625   2.488   6.119   4.049 -0.2341  0.9271 -0.3072
  164DOPC  C31722626   2.542   6.286   4.178 -0.2202 -0.6576 -0.5016
  164DOPC  H17X22627   2.460   6.295   4.253  0.3812 -2.5208  0.4500
  164DOPC  H17Y22628   2.640   6.308   4.223 -1.5146 -0.4454  2.4116
  164DOPC  C31822629   2.532   6.384   4.057 -0.3321 -0.2062 -0.0121
  164DOPC  H18X22630   2.622   6.384   3.992 -0.1688  1.1985  0.1850
  164DOPC  H18Y22631   2.440   6.360   4.000 -0.6678  0.0749  0.4036
  164DOPC  H18Z22632   2.540   6.486   4.099  0.2146 -0.6200  0.9291
  165DOPC     N22633  11.165   5.499   5.854 -0.3931  0.6694 -0.1003
  165DOPC   C1222634  11.163   5.417   5.730  0.3840 -0.9215 -0.1562
  165DOPC  H12A22635  11.106   5.478   5.662  0.5060 -0.1117  0.4584
  165DOPC  H12B22636  11.103   5.333   5.763  2.2214 -1.9222  0.8154
  165DOPC   C1322637  11.252   5.623   5.837  0.6143  0.7365  0.1607
  165DOPC  H13A22638  11.265   5.682   5.926 -1.1706  0.4430  0.6403
  165DOPC  H13B22639  11.354   5.592   5.817  0.7853  0.4867  1.3346
  165DOPC  H13C22640  11.217   5.688   5.758 -2.5260  0.8236  1.4832
  165DOPC   C1422641  11.227   5.434   5.968  0.2595 -0.1468  0.5493
  165DOPC  H14A22642  11.247   5.506   6.046 -0.9010  4.2586 -2.7540
  165DOPC  H14B22643  11.165   5.355   6.006 -1.1852  0.2045 -0.9341
  165DOPC  H14C22644  11.319   5.385   5.942 -0.5023 -2.0494  1.2865
  165DOPC   C1522645  11.023   5.532   5.885  0.5388  0.0548 -0.2549
  165DOPC  H15A22646  10.958   5.446   5.883 -0.0897  0.5353 -1.1474
  165DOPC  H15B22647  10.977   5.610   5.825 -0.2840  1.2282  1.8230
  165DOPC  H15C22648  11.013   5.568   5.986 -1.0663  4.5132 -1.7561
  165DOPC   C1122649  11.296   5.369   5.674 -0.5988 -0.3311 -0.8303
  165DOPC  H11A22650  11.280   5.333   5.570  2.4545  0.8876 -1.8418
  165DOPC  H11B22651  11.363   5.457   5.666  1.3198 -1.4907  1.5558
  165DOPC     P22652  11.487   5.201   5.718 -0.3284  0.0830 -0.3741
  165DOPC   O1322653  11.461   5.060   5.706 -0.7955 -0.0135  0.4729
  165DOPC   O1422654  11.591   5.247   5.814  0.1605  0.1327 -0.4627
  165DOPC   O1222655  11.352   5.266   5.758  0.0273  0.2974 -0.1813
  165DOPC   O1122656  11.531   5.261   5.580  0.1012  0.1473  0.0087
  165DOPC    C122657  11.498   5.202   5.460  0.1194 -0.0366  0.6573
  165DOPC    HA22658  11.497   5.275   5.376  0.9116  0.2421  0.8850
  165DOPC    HB22659  11.401   5.148   5.463 -0.3547  0.7684  0.2821
  165DOPC    C222660  11.610   5.106   5.421  0.8386 -0.6567 -0.1602
  165DOPC    HS22661  11.609   5.027   5.499  0.1478 -0.0080  0.4904
  165DOPC   O2122662  11.739   5.176   5.421  0.2332 -0.2095  1.2906
  165DOPC   C2122663  11.826   5.143   5.517  0.0021 -0.2067  0.8891
  165DOPC   O2222664  11.817   5.053   5.594  0.6856 -0.0643 -0.9064
  165DOPC   C2222665  11.937   5.247   5.519 -1.1036 -0.3701  0.1495
  165DOPC   H2R22666  12.030   5.217   5.573 -0.7058  1.2538  0.4222
  165DOPC   H2S22667  11.889   5.331   5.573 -0.1302  0.4233 -0.1853
  165DOPC    C322668  11.603   5.041   5.280 -0.4789  0.0921 -0.5602
  165DOPC    HX22669  11.693   4.985   5.246 -0.3945 -0.4463  0.5118
  165DOPC    HY22670  11.599   5.129   5.213  1.1555  1.9922  1.6639
  165DOPC   O3122671  11.467   4.980   5.259 -0.6082  0.3655  0.3922
  165DOPC   C3122672  11.460   4.846   5.284 -0.1447  0.0358  0.3244
  165DOPC   O3222673  11.547   4.772   5.330  0.0905 -0.0370  0.2787
  165DOPC   C3222674  11.320   4.794   5.243  0.2726 -0.6841  0.1957
  165DOPC   H2X22675  11.256   4.827   5.327  0.0520  4.0584 -1.5504
  165DOPC   H2Y22676  11.286   4.848   5.152  1.6828  0.5371  0.3568
  165DOPC   C2322677  11.969   5.309   5.377 -0.2758 -0.5605  0.0020
  165DOPC   H3R22678  12.035   5.397   5.393 -1.9724  0.5545  1.3193
  165DOPC   H3S22679  11.883   5.352   5.321  0.4701  1.6843  0.4809
  165DOPC   C2422680  12.046   5.216   5.281 -0.2596 -0.2912 -0.0661
  165DOPC   H4R22681  12.005   5.116   5.304  0.3864 -0.1922  1.6601
  165DOPC   H4S22682  12.153   5.212   5.311  0.7259 -1.2084 -3.2619
  165DOPC   C2522683  12.038   5.256   5.134 -0.4741  0.0299 -0.0178
  165DOPC   H5R22684  12.071   5.361   5.119 -1.6524  0.2613 -1.2524
  165DOPC   H5S22685  11.932   5.254   5.100 -1.0580  0.1947  1.7213
  165DOPC   C2622686  12.114   5.145   5.046 -0.9903 -0.3491  0.3817
  165DOPC   H6R22687  12.066   5.046   5.062 -0.4268 -0.3710  2.2044
  165DOPC   H6S22688  12.222   5.144   5.070 -0.6245 -0.1307 -1.1869
  165DOPC   C2722689  12.111   5.187   4.896  0.3604 -0.2625  0.4955
  165DOPC   H7R22690  12.174   5.278   4.889 -0.5375  0.5057  1.9078
  165DOPC   H7S22691  12.006   5.216   4.872  0.4793  0.0595  0.3502
  165DOPC   C2822692  12.128   5.072   4.795  0.4503 -0.1542  0.1793
  165DOPC   H8R22693  12.091   5.098   4.694  0.1529 -0.3038  0.2488
  165DOPC   H8S22694  12.065   4.984   4.821  1.2538 -0.8573 -0.2092
  165DOPC   C2922695  12.267   5.024   4.796 -0.0319  0.4572 -0.4754
  165DOPC   H9R22696  12.320   5.034   4.891 -0.9756  3.3019 -0.1719
  165DOPC  C21022697  12.345   4.990   4.691  0.5808 -0.7400  0.5776
  165DOPC  H10R22698  12.450   4.961   4.708  1.5059 -0.2340 -3.2779
  165DOPC  C21122699  12.297   4.987   4.547 -0.4477  0.8823 -0.9825
  165DOPC  H11R22700  12.186   4.998   4.547 -0.8883 -2.1343  1.8013
  165DOPC  H11S22701  12.307   4.882   4.513  1.6443  0.1384  1.6418
  165DOPC  C21222702  12.365   5.078   4.451 -0.2425 -0.2780 -0.4376
  165DOPC  H12R22703  12.471   5.046   4.449  0.3136  1.4887 -1.1118
  165DOPC  H12S22704  12.359   5.182   4.491  0.1131  0.8585 -3.1158
  165DOPC  C21322705  12.301   5.083   4.310 -0.0027  0.3183  0.2020
  165DOPC  H13R22706  12.194   5.113   4.310 -0.0553  0.3075  2.4667
  165DOPC  H13S22707  12.302   4.977   4.275  2.4376  0.1218  0.6830
  165DOPC  C21422708  12.377   5.175   4.210  0.4544  0.2960 -0.5574
  165DOPC  H14R22709  12.348   5.144   4.107 -1.9414  0.1340  0.0995
  165DOPC  H14S22710  12.486   5.163   4.225  0.1063  0.5418  3.1141
  165DOPC  C21522711  12.340   5.321   4.223  0.2775 -0.6630  0.6252
  165DOPC  H15R22712  12.387   5.369   4.312 -0.2591  2.0032 -0.4128
  165DOPC  H15S22713  12.229   5.325   4.225  0.2747 -0.7418  2.1132
  165DOPC  C21622714  12.389   5.419   4.109 -0.2834 -0.1730 -0.2056
  165DOPC  H16R22715  12.340   5.386   4.016  0.7206  0.9105 -1.1476
  165DOPC  H16S22716  12.496   5.393   4.090 -0.4761 -0.9949 -0.2297
  165DOPC  C21722717  12.376   5.569   4.133  0.1033  0.1881  0.6319
  165DOPC  H17R22718  12.420   5.619   4.044  0.3999 -2.2447 -0.6715
  165DOPC  H17S22719  12.423   5.598   4.229  0.1113 -0.3263  0.7853
  165DOPC  C21822720  12.229   5.619   4.129  0.1301  0.1579 -0.4663
  165DOPC  H18R22721  12.198   5.610   4.235 -0.7018  1.2883 -0.5962
  165DOPC  H18S22722  12.165   5.560   4.060 -0.7204  0.5611 -0.0260
  165DOPC  H18T22723  12.227   5.728   4.113 -2.3706  0.5399  1.7774
  165DOPC   C3322724  11.312   4.644   5.227 -0.0548 -0.2979 -0.3028
  165DOPC   H3X22725  11.208   4.605   5.220 -0.2197  0.2308 -0.8375
  165DOPC   H3Y22726  11.357   4.585   5.310  0.9502 -0.4221 -0.9196
  165DOPC   C3422727  11.364   4.586   5.092  0.3203 -0.2462  0.6800
  165DOPC   H4X22728  11.340   4.644   5.000  1.8583 -3.2135 -1.7640
  165DOPC   H4Y22729  11.321   4.484   5.086 -0.3375  0.0961 -1.6127
  165DOPC   C3522730  11.524   4.582   5.088  0.2502  0.9612  0.2040
  165DOPC   H5X22731  11.550   4.516   5.173 -0.9550  1.4646  0.9764
  165DOPC   H5Y22732  11.559   4.687   5.100  1.0914  0.8090 -0.7294
  165DOPC   C3622733  11.573   4.523   4.952  0.7547  0.1309 -0.3663
  165DOPC   H6X22734  11.524   4.424   4.941  1.4768 -0.4357  1.0976
  165DOPC   H6Y22735  11.549   4.580   4.860  1.2305  1.0964  0.0904
  165DOPC   C3722736  11.723   4.497   4.945  0.0369  0.3754 -0.3482
  165DOPC   H7X22737  11.751   4.429   4.862  0.4904 -2.2307  1.7862
  165DOPC   H7Y22738  11.776   4.593   4.930  1.4266 -0.0119  1.7057
  165DOPC   C3822739  11.781   4.435   5.072 -0.6796 -0.2683 -0.5973
  165DOPC   H8X22740  11.758   4.515   5.145 -0.0003 -0.2810 -0.3609
  165DOPC   H8Y22741  11.892   4.431   5.065 -0.4401  3.5513 -1.1854
  165DOPC   C3922742  11.716   4.309   5.126  0.4197 -0.5811 -0.0094
  165DOPC   H9X22743  11.627   4.344   5.181  3.7338  4.5679  2.8557
  165DOPC  C31022744  11.764   4.185   5.142 -0.2149  0.2619  0.1900
  165DOPC  H10X22745  11.705   4.114   5.201  0.2798  0.2274  0.6540
  165DOPC  C31122746  11.897   4.143   5.079  0.0842 -0.5042  0.2222
  165DOPC  H11X22747  11.955   4.096   5.161 -0.4621  1.2988  1.7149
  165DOPC  H11Y22748  11.947   4.233   5.037 -0.5976  0.3058  1.0929
  165DOPC  C31222749  11.883   4.043   4.968 -0.1195 -0.0981  0.4521
  165DOPC  H12X22750  11.819   3.961   5.007 -0.2851  0.5490  1.5859
  165DOPC  H12Y22751  11.984   4.000   4.949  0.0213 -0.2138  1.4315
  165DOPC  C31322752  11.825   4.100   4.833 -0.0801  0.9058 -0.3782
  165DOPC  H13X22753  11.812   4.013   4.766  0.4000 -0.0954  0.7852
  165DOPC  H13Y22754  11.727   4.147   4.858  0.2030  0.6694  1.2965
  165DOPC  C31422755  11.918   4.194   4.753 -0.6383  0.0476 -0.7756
  165DOPC  H14X22756  11.941   4.285   4.814 -1.3406 -0.7026  0.6415
  165DOPC  H14Y22757  12.016   4.150   4.725 -2.2791 -3.0649 -2.0941
  165DOPC  C31522758  11.856   4.271   4.629  0.2101 -0.0370 -1.0633
  165DOPC  H15X22759  11.922   4.354   4.596  0.5921  0.3240  0.4954
  165DOPC  H15Y22760  11.756   4.313   4.652  0.0065 -0.3856 -1.2990
  165DOPC  C31622761  11.841   4.164   4.509  0.3271 -0.5886 -0.1828
  165DOPC  H16X22762  11.937   4.110   4.492  0.2012 -1.0818  0.6451
  165DOPC  H16Y22763  11.769   4.093   4.554 -0.8600  1.1046  0.6911
  165DOPC  C31722764  11.792   4.239   4.384  0.2546  0.0216  0.0931
  165DOPC  H17X22765  11.701   4.291   4.420  0.1955 -1.5674  2.5243
  165DOPC  H17Y22766  11.878   4.308   4.366  0.3077  0.1857  0.9139
  165DOPC  C31822767  11.755   4.148   4.264  0.3904 -0.2286  0.7008
  165DOPC  H18X22768  11.851   4.105   4.229  0.7293 -0.9692  2.4116
  165DOPC  H18Y22769  11.681   4.069   4.289  0.0506  0.6306  2.6375
  165DOPC  H18Z22770  11.724   4.211   4.178  2.5103  0.4682  0.3846
  166DOPC     N22771   5.271   8.373   6.218  0.2721  1.1347 -0.2907
  166DOPC   C1222772   5.224   8.259   6.304  0.2742 -0.4729  0.1786
  166DOPC  H12A22773   5.118   8.267   6.322 -0.1260 -1.2101 -1.5817
  166DOPC  H12B22774   5.282   8.253   6.395 -1.5449  1.4582  1.5618
  166DOPC   C1322775   5.421   8.367   6.192  0.4701 -0.2949 -0.0954
  166DOPC  H13A22776   5.478   8.377   6.283 -0.0372  1.6958  0.0498
  166DOPC  H13B22777   5.444   8.273   6.145 -1.1123 -1.2260  0.9132
  166DOPC  H13C22778   5.448   8.439   6.116  1.0412 -1.7297 -1.3006
  166DOPC   C1422779   5.230   8.489   6.296  1.0433  0.0992  0.8532
  166DOPC  H14A22780   5.261   8.582   6.251 -1.1209 -0.0485 -1.0748
  166DOPC  H14B22781   5.124   8.504   6.312  0.7430 -0.1571 -0.7376
  166DOPC  H14C22782   5.266   8.486   6.398 -1.2683  0.5127  1.7514
  166DOPC   C1522783   5.205   8.366   6.085 -0.0686 -0.2615 -0.0590
  166DOPC  H15A22784   5.250   8.442   6.023  0.1725  1.4460  2.1054
  166DOPC  H15B22785   5.100   8.390   6.092  0.3269  2.2143 -1.5062
  166DOPC  H15C22786   5.216   8.268   6.039  2.4721 -0.0785  0.0346
  166DOPC   C1122787   5.233   8.119   6.235 -0.0286 -0.3859  0.5782
  166DOPC  H11A22788   5.211   8.050   6.319  0.8307 -1.6286 -0.1982
  166DOPC  H11B22789   5.150   8.110   6.161  1.4433  3.1632 -1.7906
  166DOPC     P22790   5.428   7.955   6.161 -0.1886 -0.0057  0.0554
  166DOPC   O1322791   5.327   7.867   6.103 -0.0824 -0.1827  0.6546
  166DOPC   O1422792   5.499   7.923   6.287  0.7159  0.3968 -0.2718
  166DOPC   O1222793   5.355   8.096   6.172 -0.2515 -0.7472 -0.0461
  166DOPC   O1122794   5.540   7.981   6.050 -0.2491  0.2843 -0.6406
  166DOPC    C122795   5.563   8.105   5.990 -0.8808 -0.1025  0.6385
  166DOPC    HA22796   5.622   8.177   6.051  3.2137 -0.8869 -1.9721
  166DOPC    HB22797   5.467   8.157   5.968 -0.6546 -0.1750 -0.5544
  166DOPC    C222798   5.638   8.093   5.854  0.0329  0.0507 -0.0925
  166DOPC    HS22799   5.616   8.185   5.796 -0.3869  1.1946  1.7792
  166DOPC   O2122800   5.589   7.983   5.780 -0.2415 -0.4589  0.6509
  166DOPC   C2122801   5.460   7.985   5.749 -0.5181 -0.8342  0.2935
  166DOPC   O2222802   5.388   8.083   5.758  0.5821 -0.7283 -0.0062
  166DOPC   C2222803   5.434   7.859   5.666 -0.0457  0.1125 -0.1835
  166DOPC   H2R22804   5.323   7.866   5.661 -0.0432  0.4275  0.1888
  166DOPC   H2S22805   5.464   7.767   5.720  1.6021 -0.2964 -1.7090
  166DOPC    C322806   5.791   8.088   5.875 -0.0772  0.3270 -0.1869
  166DOPC    HX22807   5.794   7.999   5.943  0.6370  2.4829  2.8078
  166DOPC    HY22808   5.822   8.176   5.934  1.0187 -0.0586 -0.1655
  166DOPC   O3122809   5.864   8.074   5.754  0.1572 -0.1367  0.5804
  166DOPC   C3122810   5.927   7.964   5.732 -0.3068  0.6348  0.1870
  166DOPC   O3222811   5.933   7.865   5.805 -0.2116  0.4130  0.0687
  166DOPC   C3222812   6.001   7.973   5.598 -0.1231 -0.3056  0.6419
  166DOPC   H2X22813   6.087   8.043   5.606 -0.0443 -0.4266  0.8588
  166DOPC   H2Y22814   6.049   7.874   5.587 -0.5529 -0.3031 -1.8369
  166DOPC   C2322815   5.484   7.846   5.515 -0.2393  0.3379 -0.2808
  166DOPC   H3R22816   5.585   7.802   5.497 -0.7430 -0.3406 -1.5313
  166DOPC   H3S22817   5.508   7.946   5.474  1.2586  0.2449  0.3213
  166DOPC   C2422818   5.390   7.777   5.415 -0.0084 -0.3640 -0.7429
  166DOPC   H4R22819   5.288   7.817   5.431  1.2995  2.2996  2.0587
  166DOPC   H4S22820   5.384   7.669   5.441 -0.1780 -0.5107 -1.3728
  166DOPC   C2522821   5.422   7.789   5.264 -0.3228  0.2569  0.0771
  166DOPC   H5R22822   5.426   7.897   5.239  0.7205  0.2837  0.3472
  166DOPC   H5S22823   5.337   7.739   5.212  1.0406 -0.1624 -1.8274
  166DOPC   C2622824   5.559   7.737   5.226 -0.4168 -0.0816 -0.2214
  166DOPC   H6R22825   5.572   7.631   5.256  1.2628  0.4890  1.2333
  166DOPC   H6S22826   5.639   7.791   5.280 -0.3804 -0.2678 -0.0888
  166DOPC   C2722827   5.581   7.751   5.069 -0.5905  0.4703 -0.2342
  166DOPC   H7R22828   5.512   7.683   5.014  1.2096 -1.8219  0.1779
  166DOPC   H7S22829   5.683   7.717   5.044 -0.2537  0.8415  0.6194
  166DOPC   C2822830   5.562   7.899   5.017  0.1882 -0.7531 -0.1140
  166DOPC   H8R22831   5.457   7.920   5.046 -0.2851 -0.9420 -1.5926
  166DOPC   H8S22832   5.557   7.916   4.907 -2.0744  0.5720  0.1246
  166DOPC   C2922833   5.666   7.989   5.077 -0.3717  0.0798  0.2332
  166DOPC   H9R22834   5.702   7.966   5.178 -0.5160  0.4310  0.3676
  166DOPC  C21022835   5.725   8.101   5.017  0.2829 -0.2418  0.0845
  166DOPC  H10R22836   5.816   8.140   5.065 -0.4559 -0.2458  1.5328
  166DOPC  C21122837   5.677   8.159   4.890  0.0422 -0.1927 -0.1724
  166DOPC  H11R22838   5.690   8.269   4.883  0.8335 -0.1499  1.5086
  166DOPC  H11S22839   5.570   8.136   4.874 -0.4090 -1.1896  3.2971
  166DOPC  C21222840   5.783   8.109   4.787 -0.5233 -0.4258  0.1670
  166DOPC  H12R22841   5.785   8.000   4.764  2.1259 -0.2646 -0.7432
  166DOPC  H12S22842   5.886   8.141   4.816 -0.7695  1.4934 -0.9085
  166DOPC  C21322843   5.752   8.167   4.646  0.2228 -0.4127  0.2063
  166DOPC  H13R22844   5.841   8.225   4.611  0.0193  1.6133  2.7624
  166DOPC  H13S22845   5.670   8.242   4.647  1.4719  1.0174  0.7496
  166DOPC  C21422846   5.701   8.056   4.542  0.0886 -0.1531 -0.5254
  166DOPC  H14R22847   5.602   8.018   4.574  0.7668 -0.3846  1.4373
  166DOPC  H14S22848   5.769   7.970   4.560 -1.1163 -1.3305 -1.4426
  166DOPC  C21522849   5.714   8.109   4.401  0.2719  0.6672  0.2658
  166DOPC  H15R22850   5.819   8.119   4.368  0.2155 -0.8163 -0.4393
  166DOPC  H15S22851   5.662   8.207   4.397 -2.6415 -0.7656  0.3315
  166DOPC  C21622852   5.656   8.010   4.297  0.5627  0.3590 -0.0080
  166DOPC  H16R22853   5.546   8.005   4.311  0.3111  1.1539 -1.4836
  166DOPC  H16S22854   5.693   7.905   4.307 -1.1480 -0.4317 -1.3688
  166DOPC  C21722855   5.687   8.050   4.155  0.1026  0.2850 -0.2004
  166DOPC  H17R22856   5.790   8.081   4.128  0.9102 -1.5148  0.6253
  166DOPC  H17S22857   5.632   8.146   4.145 -2.7032 -1.2146 -0.2694
  166DOPC  C21822858   5.633   7.955   4.044 -0.4224  0.5540 -0.1267
  166DOPC  H18R22859   5.526   7.939   4.069 -0.5162 -0.4566 -1.0780
  166DOPC  H18S22860   5.680   7.854   4.040 -0.6794  0.4172  0.2137
  166DOPC  H18T22861   5.638   8.007   3.946  0.9267 -0.3688 -0.5738
  166DOPC   C3322862   5.916   8.013   5.472  0.3052 -0.4948 -0.3522
  166DOPC   H3X22863   5.842   8.092   5.499  2.2814  2.0535 -1.8942
  166DOPC   H3Y22864   5.860   7.937   5.414 -0.3079 -0.7974  0.6168
  166DOPC   C3422865   6.006   8.083   5.362 -0.5767 -0.3512  0.0160
  166DOPC   H4X22866   6.076   8.166   5.387  0.0351  0.1020 -2.8401
  166DOPC   H4Y22867   5.935   8.132   5.291  0.2078  0.1778 -0.4182
  166DOPC   C3522868   6.081   7.988   5.269  0.0172 -0.1321  0.1226
  166DOPC   H5X22869   6.017   7.899   5.254 -1.8980  1.4169 -1.3663
  166DOPC   H5Y22870   6.173   7.955   5.322 -0.2982 -0.1624  0.6564
  166DOPC   C3622871   6.121   8.046   5.126 -0.1587  0.3614 -0.3766
  166DOPC   H6X22872   6.043   8.123   5.106 -1.3250 -0.6783  0.0357
  166DOPC   H6Y22873   6.216   8.104   5.122 -0.5565  1.0328 -0.3690
  166DOPC   C3722874   6.110   7.950   5.007  0.6292 -0.7398  0.4319
  166DOPC   H7X22875   6.175   7.861   5.023 -0.9151 -1.8962  0.5110
  166DOPC   H7Y22876   6.003   7.919   5.011  0.3379  0.2688  0.7083
  166DOPC   C3822877   6.137   8.016   4.874  0.1759 -0.2324  0.1547
  166DOPC   H8X22878   6.084   8.114   4.871  1.1315  0.3517  1.3742
  166DOPC   H8Y22879   6.097   7.958   4.788  2.8035 -2.3125  0.1904
  166DOPC   C3922880   6.280   8.042   4.863 -0.8531 -1.0548  1.0089
  166DOPC   H9X22881   6.332   8.103   4.938  1.3359 -1.3270 -0.1999
  166DOPC  C31022882   6.363   7.982   4.769  0.6858  0.6232  0.6881
  166DOPC  H10X22883   6.471   7.999   4.779  0.9158 -0.1494 -0.3775
  166DOPC  C31122884   6.331   7.894   4.649  0.2469  0.2207 -0.2580
  166DOPC  H11X22885   6.228   7.853   4.657  0.5832 -0.5344  0.2937
  166DOPC  H11Y22886   6.410   7.816   4.647  0.2452  0.1284  1.8368
  166DOPC  C31222887   6.327   7.983   4.523  0.0820  0.2765  0.5155
  166DOPC  H12X22888   6.427   8.030   4.525 -0.6457  1.9251 -0.2296
  166DOPC  H12Y22889   6.247   8.059   4.523 -1.4475 -1.2500  1.2492
  166DOPC  C31322890   6.311   7.898   4.389 -0.0528 -0.4108 -0.4984
  166DOPC  H13X22891   6.303   7.976   4.310  0.8521 -0.2573 -0.4444
  166DOPC  H13Y22892   6.398   7.831   4.373 -0.1351 -0.1454 -2.2240
  166DOPC  C31422893   6.178   7.819   4.392 -0.4728 -1.0490 -0.7030
  166DOPC  H14X22894   6.159   7.757   4.482  0.2937 -1.2421 -0.6681
  166DOPC  H14Y22895   6.096   7.894   4.385 -0.2355 -0.4356  2.1581
  166DOPC  C31522896   6.170   7.727   4.273  1.1783 -0.5374  0.1314
  166DOPC  H15X22897   6.241   7.642   4.267  2.5530  0.4920  0.9637
  166DOPC  H15Y22898   6.193   7.788   4.183 -0.2471 -1.3463 -0.8120
  166DOPC  C31622899   6.024   7.679   4.252 -0.0623 -0.0158  0.0553
  166DOPC  H16X22900   6.000   7.629   4.348 -1.7986  0.9085  0.1248
  166DOPC  H16Y22901   5.971   7.776   4.242  0.0851  0.0194 -0.3930
  166DOPC  C31722902   6.006   7.601   4.129 -0.6415 -0.6775 -0.3622
  166DOPC  H17X22903   6.025   7.660   4.037 -0.2753  0.9153  0.6743
  166DOPC  H17Y22904   6.081   7.519   4.131  1.5110  1.0767 -2.7780
  166DOPC  C31822905   5.864   7.544   4.105  0.2177  0.4953  0.0234
  166DOPC  H18X22906   5.784   7.611   4.066 -0.3894 -0.4079 -0.3198
  166DOPC  H18Y22907   5.877   7.450   4.048  0.3288  0.2521  0.4460
  166DOPC  H18Z22908   5.823   7.527   4.207  0.3761  0.2804  0.0509
  167DOPC     N22909   1.531   4.410   5.687  0.1772  0.0091 -0.6019
  167DOPC   C1222910   1.523   4.453   5.543  0.2355 -0.1411  0.2794
  167DOPC  H12A22911   1.496   4.374   5.475 -0.8987  0.7346 -0.3257
  167DOPC  H12B22912   1.626   4.467   5.514 -0.4396 -0.1810 -2.3694
  167DOPC   C1322913   1.595   4.513   5.773 -0.0888 -0.0359 -0.3343
  167DOPC  H13A22914   1.701   4.511   5.754  0.2186  1.1205  1.0605
  167DOPC  H13B22915   1.551   4.608   5.745 -1.0244 -0.4670 -0.3603
  167DOPC  H13C22916   1.572   4.497   5.877 -2.8331 -0.3800 -0.9061
  167DOPC   C1422917   1.617   4.291   5.701  0.5271  0.0509  0.0578
  167DOPC  H14A22918   1.615   4.260   5.804  0.5312 -3.5734 -0.8905
  167DOPC  H14B22919   1.582   4.206   5.645  0.2305 -0.0773  0.4348
  167DOPC  H14C22920   1.721   4.311   5.681  0.5234  1.7594  1.5307
  167DOPC   C1522921   1.393   4.373   5.733  0.0970  0.0737 -0.2431
  167DOPC  H15A22922   1.396   4.338   5.835 -2.1808 -1.4105 -0.6015
  167DOPC  H15B22923   1.348   4.295   5.673  1.6909  0.5425 -2.1453
  167DOPC  H15C22924   1.321   4.453   5.727 -0.5967 -0.5815 -0.9402
  167DOPC   C1122925   1.449   4.586   5.510  0.5156  0.4114 -0.0654
  167DOPC  H11A22926   1.451   4.587   5.399 -0.5583 -1.3656 -0.1320
  167DOPC  H11B22927   1.343   4.584   5.542  0.8904  1.9498  1.3580
  167DOPC     P22928   1.459   4.841   5.543 -0.7606 -0.1132  0.1425
  167DOPC   O1322929   1.547   4.940   5.607  0.2096  0.0334 -0.0540
  167DOPC   O1422930   1.317   4.842   5.576  0.1798 -0.2300 -0.1613
  167DOPC   O1222931   1.519   4.696   5.579 -0.1978  1.0774  0.4876
  167DOPC   O1122932   1.483   4.858   5.390 -1.2009  0.2006 -0.3503
  167DOPC    C122933   1.613   4.853   5.331 -0.0690  0.9218 -0.1517
  167DOPC    HA22934   1.680   4.780   5.382 -1.1823 -0.1911 -0.2296
  167DOPC    HB22935   1.651   4.957   5.333  0.8740  0.5832 -0.2501
  167DOPC    C222936   1.610   4.813   5.182 -0.2664 -0.3843 -0.7582
  167DOPC    HS22937   1.713   4.794   5.144  0.1361  1.1953 -0.5383
  167DOPC   O2122938   1.557   4.919   5.098  0.2888 -0.0683 -0.2806
  167DOPC   C2122939   1.643   5.021   5.076 -0.3569 -0.6634  0.3453
  167DOPC   O2222940   1.758   5.039   5.125  0.6151 -0.0980  0.1807
  167DOPC   C2222941   1.578   5.117   4.986  0.3189 -1.0598  0.0699
  167DOPC   H2R22942   1.617   5.212   5.026  3.3128 -1.3448 -1.8340
  167DOPC   H2S22943   1.467   5.107   4.982  0.0391  0.9648  1.3891
  167DOPC    C322944   1.526   4.687   5.155  0.3258 -0.2054  0.3706
  167DOPC    HX22945   1.425   4.695   5.199  0.4002 -0.3941  0.5821
  167DOPC    HY22946   1.583   4.602   5.199  0.2340 -0.3225  0.2637
  167DOPC   O3122947   1.500   4.668   5.015 -0.5089  0.4659  0.3569
  167DOPC   C3122948   1.584   4.571   4.960  0.0852 -0.8404  0.2845
  167DOPC   O3222949   1.687   4.538   5.005  0.3263  0.3711 -0.3185
  167DOPC   C3222950   1.528   4.532   4.826  0.0375  0.3425 -0.3018
  167DOPC   H2X22951   1.553   4.427   4.801 -0.2435  0.7171 -2.3320
  167DOPC   H2Y22952   1.417   4.531   4.833  0.0532  1.9798  0.9193
  167DOPC   C2322953   1.620   5.111   4.841  0.3180  0.4516  0.4396
  167DOPC   H3R22954   1.566   5.182   4.775  1.8590  0.4582 -0.8884
  167DOPC   H3S22955   1.596   5.008   4.806 -0.8616  0.8486  0.0398
  167DOPC   C2422956   1.770   5.108   4.813 -0.5101  0.8534  0.3372
  167DOPC   H4R22957   1.829   5.024   4.855  0.9302  0.4011 -2.3601
  167DOPC   H4S22958   1.815   5.203   4.848  0.5923 -0.1816  1.8515
  167DOPC   C2522959   1.802   5.088   4.656 -0.4921 -0.2664 -0.1639
  167DOPC   H5R22960   1.762   5.174   4.598 -0.4907  1.1444  1.8330
  167DOPC   H5S22961   1.760   4.996   4.610 -0.2181 -0.5856  0.2187
  167DOPC   C2622962   1.959   5.089   4.637 -0.9449  0.2948  0.2735
  167DOPC   H6R22963   1.992   4.993   4.682  0.2265 -0.1786 -1.4795
  167DOPC   H6S22964   2.009   5.174   4.689 -1.2815  0.0102  1.0804
  167DOPC   C2722965   1.985   5.087   4.484  0.3535  0.1065  0.3594
  167DOPC   H7R22966   1.968   5.192   4.450 -0.2912  0.0373  0.4729
  167DOPC   H7S22967   1.919   5.021   4.424  0.6430 -0.0189  0.1767
  167DOPC   C2822968   2.133   5.050   4.446  0.3913 -0.5295 -0.1099
  167DOPC   H8R22969   2.142   4.939   4.448  1.5876 -0.4643 -0.9677
  167DOPC   H8S22970   2.199   5.084   4.529 -1.2503  0.3265  0.8975
  167DOPC   C2922971   2.174   5.088   4.307 -0.0038 -0.0126 -0.2787
  167DOPC   H9R22972   2.113   5.162   4.255 -0.4825 -0.1079  0.1390
  167DOPC  C21022973   2.301   5.063   4.265 -0.2734 -0.4635 -0.0048
  167DOPC  H10R22974   2.340   5.112   4.175 -1.0741 -1.9173 -1.1936
  167DOPC  C21122975   2.401   4.975   4.330  0.1612  0.4818 -0.4191
  167DOPC  H11R22976   2.417   4.888   4.264 -1.8065  0.3000 -0.7019
  167DOPC  H11S22977   2.360   4.937   4.425 -1.2622  0.5826 -0.9683
  167DOPC  C21222978   2.533   5.053   4.346  0.5634  0.2152  0.1108
  167DOPC  H12R22979   2.514   5.119   4.434 -1.9052 -0.4230  0.1330
  167DOPC  H12S22980   2.575   5.102   4.256  0.4491  0.6183  0.2758
  167DOPC  C21322981   2.645   4.950   4.404 -0.2694  0.0603  0.4198
  167DOPC  H13R22982   2.689   4.885   4.325 -0.8105 -1.5056  1.3627
  167DOPC  H13S22983   2.588   4.892   4.480 -1.9202  0.7097 -0.2940
  167DOPC  C21422984   2.753   5.025   4.476 -0.1959 -0.6184 -0.1396
  167DOPC  H14R22985   2.797   4.952   4.547 -1.0293 -0.7926  0.2178
  167DOPC  H14S22986   2.703   5.108   4.530 -0.2647  2.3139 -4.2547
  167DOPC  C21522987   2.868   5.085   4.385  0.1451  0.0152 -0.0110
  167DOPC  H15R22988   2.817   5.117   4.292 -0.5787 -1.9211 -0.3220
  167DOPC  H15S22989   2.926   4.997   4.349 -0.8648 -0.6370 -0.0764
  167DOPC  C21622990   2.958   5.192   4.445  0.0944 -0.3770 -0.0123
  167DOPC  H16R22991   3.008   5.156   4.537  0.7614  1.6191  0.4794
  167DOPC  H16S22992   2.904   5.284   4.476  2.3964  0.7537  0.8924
  167DOPC  C21722993   3.053   5.238   4.336 -0.7079  0.1724  0.2838
  167DOPC  H17R22994   3.095   5.333   4.374 -0.9650  0.9579 -1.2847
  167DOPC  H17S22995   2.993   5.272   4.249  1.5858 -0.3410 -1.6118
  167DOPC  C21822996   3.161   5.139   4.294 -0.2723 -0.0928  0.0322
  167DOPC  H18R22997   3.200   5.158   4.192 -0.2958 -0.2518 -0.0069
  167DOPC  H18S22998   3.128   5.033   4.295  1.1957 -0.5972 -0.8801
  167DOPC  H18T22999   3.254   5.151   4.353 -0.0293 -1.3999 -0.0547
  167DOPC   C3323000   1.573   4.610   4.708 -0.2412  0.8596  0.3031
  167DOPC   H3X23001   1.677   4.585   4.680 -1.2935 -0.9992 -2.3708
  167DOPC   H3Y23002   1.578   4.719   4.726  2.2140  0.9641 -0.7188
  167DOPC   C3423003   1.500   4.593   4.576  0.6067  0.5843  0.2699
  167DOPC   H4X23004   1.394   4.623   4.580  0.2626 -0.6430  1.1598
  167DOPC   H4Y23005   1.509   4.487   4.544  1.6870  0.4391  0.9947
  167DOPC   C3523006   1.558   4.690   4.466  0.0643  0.1457  0.1143
  167DOPC   H5X23007   1.657   4.647   4.441  0.1973  0.7271 -0.3671
  167DOPC   H5Y23008   1.575   4.791   4.510  0.4602 -0.3578  1.1745
  167DOPC   C3623009   1.476   4.704   4.339  0.2487  0.6597 -0.7292
  167DOPC   H6X23010   1.478   4.603   4.292 -1.4520  0.5762 -0.6769
  167DOPC   H6Y23011   1.369   4.710   4.369  0.4459 -0.3262  0.2459
  167DOPC   C3723012   1.524   4.812   4.248  0.3033 -0.0076  0.7376
  167DOPC   H7X23013   1.442   4.887   4.244  0.0680 -0.2400  1.0431
  167DOPC   H7Y23014   1.615   4.858   4.290  2.0715 -2.0928 -0.5988
  167DOPC   C3823015   1.574   4.775   4.106 -0.4145 -0.0572 -1.1812
  167DOPC   H8X23016   1.657   4.702   4.113 -0.9638 -0.6006 -0.0739
  167DOPC   H8Y23017   1.622   4.867   4.065  0.3898 -0.4876 -1.2185
  167DOPC   C3923018   1.457   4.732   4.024 -0.5424  0.3724  1.0190
  167DOPC   H9X23019   1.429   4.627   4.039  1.5027 -0.5591 -1.0325
  167DOPC  C31023020   1.377   4.821   3.960  0.7442  0.0027 -0.0520
  167DOPC  H10X23021   1.289   4.782   3.907  0.7995 -0.7692  0.4115
  167DOPC  C31123022   1.400   4.966   3.934 -0.3359 -0.0691  0.1901
  167DOPC  H11X23023   1.511   4.975   3.932 -0.4273  1.1619 -0.8983
  167DOPC  H11Y23024   1.365   5.032   4.017  1.5251 -0.6982  1.5329
  167DOPC  C31223025   1.358   5.021   3.791  0.3766  0.3716 -0.7107
  167DOPC  H12X23026   1.250   5.008   3.766  0.3351 -0.6749 -0.0675
  167DOPC  H12Y23027   1.413   4.963   3.714 -0.9997 -1.7254 -0.2113
  167DOPC  C31323028   1.405   5.170   3.779 -0.3423  0.0626  0.1940
  167DOPC  H13X23029   1.393   5.229   3.873  1.5428  0.5502  0.1599
  167DOPC  H13Y23030   1.515   5.158   3.771 -0.4454 -1.6426  0.7050
  167DOPC  C31423031   1.351   5.243   3.652 -0.1964 -0.0382 -0.3479
  167DOPC  H14X23032   1.243   5.265   3.666 -0.0929  0.0206  0.3966
  167DOPC  H14Y23033   1.406   5.339   3.658  1.7402 -0.8690 -3.1796
  167DOPC  C31523034   1.386   5.176   3.518  0.5532 -0.1633 -0.1056
  167DOPC  H15X23035   1.313   5.093   3.508 -2.5993  2.5377 -1.9318
  167DOPC  H15Y23036   1.490   5.141   3.531  1.1088  1.3294 -0.3090
  167DOPC  C31623037   1.374   5.258   3.393 -0.3174 -0.1876 -0.5069
  167DOPC  H16X23038   1.272   5.300   3.380 -0.0204  0.0703 -2.4097
  167DOPC  H16Y23039   1.446   5.342   3.400 -0.8994  0.2416  0.4529
  167DOPC  C31723040   1.379   5.171   3.261  0.2942  0.0267 -0.2737
  167DOPC  H17X23041   1.471   5.110   3.252  1.0275  1.1956 -0.9466
  167DOPC  H17Y23042   1.306   5.089   3.279  1.3390 -1.0764 -0.8610
  167DOPC  C31823043   1.356   5.243   3.129 -0.0264 -0.8830 -0.6609
  167DOPC  H18X23044   1.445   5.308   3.112 -1.4348  0.7298 -2.1955
  167DOPC  H18Y23045   1.337   5.164   3.053 -0.2247 -0.2129 -1.3159
  167DOPC  H18Z23046   1.266   5.308   3.129  0.5421 -0.0446  0.3101
  168DOPC     N23047   7.334  12.176   6.413  0.0371 -0.4792 -0.5548
  168DOPC   C1223048   7.406  12.272   6.500 -0.2698 -0.0381  0.8846
  168DOPC  H12A23049   7.482  12.320   6.440  0.4861 -1.5782  0.5631
  168DOPC  H12B23050   7.447  12.226   6.588 -0.5463 -1.0565  0.4948
  168DOPC   C1323051   7.220  12.110   6.494  0.1465 -0.3097 -0.1896
  168DOPC  H13A23052   7.198  12.019   6.439  1.6804  0.3788 -2.0615
  168DOPC  H13B23053   7.250  12.097   6.597 -0.3240  1.7256  0.2325
  168DOPC  H13C23054   7.131  12.170   6.499 -0.6087 -1.2744 -1.4726
  168DOPC   C1423055   7.425  12.068   6.350 -0.9469 -0.0826 -0.4861
  168DOPC  H14A23056   7.474  12.016   6.430  1.1056 -0.6524 -2.0328
  168DOPC  H14B23057   7.364  11.996   6.298 -0.7288 -0.3719 -0.3383
  168DOPC  H14C23058   7.502  12.106   6.285  0.0057 -2.4634 -0.8333
  168DOPC   C1523059   7.268  12.261   6.307  0.1919 -0.2837 -0.3041
  168DOPC  H15A23060   7.180  12.217   6.261  0.5047 -1.8894  0.5797
  168DOPC  H15B23061   7.345  12.308   6.248 -0.5871  0.0678 -1.0673
  168DOPC  H15C23062   7.220  12.349   6.349  1.2917 -0.5231  1.5457
  168DOPC   C1123063   7.314  12.369   6.573 -0.0465  1.0413 -0.5394
  168DOPC  H11A23064   7.232  12.316   6.626 -1.4235  2.2032 -1.4416
  168DOPC  H11B23065   7.371  12.421   6.653  0.1817  0.7571 -0.5165
  168DOPC     P23066   7.318  12.605   6.461 -0.3153  0.1635 -0.1236
  168DOPC   O1323067   7.355  12.676   6.589  0.3645 -0.2006  0.6272
  168DOPC   O1423068   7.216  12.658   6.368 -0.0453 -0.1237  0.1256
  168DOPC   O1223069   7.253  12.466   6.493  0.2837 -0.2558 -0.3726
  168DOPC   O1123070   7.446  12.553   6.388 -0.3907  0.4779 -0.1930
  168DOPC    C123071   7.502  12.633   6.279  0.7986  0.8367 -0.9418
  168DOPC    HA23072   7.563  12.708   6.334  1.6088 -0.3175 -0.2278
  168DOPC    HB23073   7.428  12.692   6.222 -0.9984  0.3638  0.8091
  168DOPC    C223074   7.613  12.555   6.206 -0.6531  0.6467  0.3850
  168DOPC    HS23075   7.655  12.625   6.131  0.2595 -0.3073 -0.0170
  168DOPC   O2123076   7.547  12.444   6.139 -0.3444 -0.2875  0.1500
  168DOPC   C2123077   7.496  12.473   6.013 -0.0415  0.7180 -0.2618
  168DOPC   O2223078   7.529  12.569   5.946 -0.1599  0.9598  0.2166
  168DOPC   C2223079   7.383  12.373   5.975 -0.1078 -0.2952  0.8638
  168DOPC   H2R23080   7.290  12.416   6.016 -0.9525 -1.4367  0.2095
  168DOPC   H2S23081   7.403  12.275   6.024 -0.1939 -0.0453  1.4065
  168DOPC    C323082   7.723  12.504   6.301  0.0294 -0.1852  0.2439
  168DOPC    HX23083   7.676  12.443   6.382 -1.3448  1.6932  0.9202
  168DOPC    HY23084   7.772  12.587   6.357  0.6803 -0.5546  0.2306
  168DOPC   O3123085   7.833  12.449   6.217 -0.0208  0.1353 -0.1919
  168DOPC   C3123086   7.904  12.550   6.154 -0.1394  0.3558  0.0309
  168DOPC   O3223087   7.892  12.666   6.170  0.5420 -0.4780  0.6365
  168DOPC   C3223088   8.013  12.480   6.081  0.1223 -0.6356 -1.0045
  168DOPC   H2X23089   8.070  12.422   6.157 -3.0215 -0.9497  1.3375
  168DOPC   H2Y23090   7.958  12.410   6.014 -1.3184 -0.8476  0.3357
  168DOPC   C2323091   7.353  12.360   5.823 -0.1415 -0.4784  0.7790
  168DOPC   H3R23092   7.336  12.459   5.776  0.9666 -0.9357 -0.6645
  168DOPC   H3S23093   7.256  12.306   5.823  0.4616 -1.6563 -1.0856
  168DOPC   C2423094   7.451  12.293   5.732 -0.2195 -0.0603 -0.2490
  168DOPC   H4R23095   7.482  12.193   5.770 -0.6184 -1.0957 -2.4620
  168DOPC   H4S23096   7.541  12.357   5.732 -0.0924 -0.2340  0.2989
  168DOPC   C2523097   7.397  12.292   5.589  0.6038 -0.3855 -0.8084
  168DOPC   H5R23098   7.381  12.400   5.566 -1.2175 -0.2637  0.7776
  168DOPC   H5S23099   7.296  12.244   5.590  0.8733 -1.0473  1.8254
  168DOPC   C2623100   7.485  12.235   5.474  0.1931  0.2471 -0.1425
  168DOPC   H6R23101   7.587  12.279   5.482  1.1184 -1.7859 -0.0552
  168DOPC   H6S23102   7.430  12.263   5.382  1.9201 -0.2811 -1.4000
  168DOPC   C2723103   7.476  12.076   5.463 -0.6145 -0.0307 -0.2504
  168DOPC   H7R23104   7.376  12.039   5.496 -0.0556 -1.9824 -0.6584
  168DOPC   H7S23105   7.556  12.043   5.532 -0.1015  1.6374 -0.0044
  168DOPC   C2823106   7.515  12.032   5.318  0.3371  0.2667 -0.1753
  168DOPC   H8R23107   7.447  12.097   5.258  0.6727  1.2932  0.5309
  168DOPC   H8S23108   7.490  11.924   5.310  2.5081 -0.2617 -0.4354
  168DOPC   C2923109   7.657  12.062   5.283  0.0816  0.0014  0.1692
  168DOPC   H9R23110   7.686  12.168   5.281  0.1977 -0.0365 -0.6335
  168DOPC  C21023111   7.735  11.985   5.205 -0.0766 -0.2272  0.2853
  168DOPC  H10R23112   7.829  12.024   5.165 -1.8993  0.1291 -4.1627
  168DOPC  C21123113   7.704  11.851   5.147  0.0886  0.1191 -0.3896
  168DOPC  H11R23114   7.605  11.808   5.171 -0.2563  0.4912 -1.1224
  168DOPC  H11S23115   7.776  11.781   5.195 -0.5940  0.4113  1.1171
  168DOPC  C21223116   7.714  11.855   4.989  0.6231  0.1316  0.2414
  168DOPC  H12R23117   7.633  11.925   4.960  0.4982  0.3254  1.0533
  168DOPC  H12S23118   7.682  11.757   4.946 -1.5946  1.0887 -0.4760
  168DOPC  C21323119   7.851  11.903   4.935 -0.2338  0.2203  0.4848
  168DOPC  H13R23120   7.932  11.848   4.988 -0.0335  0.7338  0.7195
  168DOPC  H13S23121   7.866  12.012   4.949 -2.4703  1.2491 -3.5272
  168DOPC  C21423122   7.876  11.867   4.785  0.6747 -0.2838  0.0674
  168DOPC  H14R23123   7.962  11.933   4.760 -1.0868  2.8131  1.5682
  168DOPC  H14S23124   7.786  11.888   4.723  1.8545  0.3362 -1.4763
  168DOPC  C21523125   7.919  11.724   4.752  0.5929  0.0103  0.5368
  168DOPC  H15R23126   7.854  11.648   4.800  0.6391 -1.0822 -1.0399
  168DOPC  H15S23127   8.008  11.722   4.818 -0.8790  0.8053  2.6323
  168DOPC  C21623128   7.940  11.693   4.606 -0.4672 -0.4362  0.2198
  168DOPC  H16R23129   7.926  11.583   4.594 -2.0862 -0.5035  2.2297
  168DOPC  H16S23130   8.030  11.738   4.558 -0.8272  1.6227  1.4102
  168DOPC  C21723131   7.820  11.739   4.518 -0.9901  0.3647  0.5363
  168DOPC  H17R23132   7.844  11.845   4.493  0.8762 -0.2882 -0.6703
  168DOPC  H17S23133   7.726  11.725   4.575  0.0039  2.3724  2.8611
  168DOPC  C21823134   7.807  11.675   4.378  0.5239 -0.2340  0.0755
  168DOPC  H18R23135   7.808  11.565   4.386 -1.0920 -0.3121 -0.3707
  168DOPC  H18S23136   7.899  11.697   4.321  1.1067 -0.6451  0.8392
  168DOPC  H18T23137   7.722  11.725   4.327  1.0265 -0.3285 -0.8718
  168DOPC   C3323138   8.088  12.585   5.996  0.2104  0.4819 -0.2377
  168DOPC   H3X23139   8.149  12.650   6.062  2.1859 -1.0851 -0.4219
  168DOPC   H3Y23140   8.023  12.651   5.935  1.0992  2.2411  0.6409
  168DOPC   C3423141   8.189  12.517   5.907 -0.6846  0.3647 -0.3487
  168DOPC   H4X23142   8.133  12.445   5.844 -3.3192  0.3223  1.8495
  168DOPC   H4Y23143   8.253  12.458   5.975 -2.3126  0.3939  1.2816
  168DOPC   C3523144   8.275  12.608   5.822 -0.1857 -0.2780  0.4326
  168DOPC   H5X23145   8.339  12.680   5.877 -0.4446 -0.1905  0.6246
  168DOPC   H5Y23146   8.198  12.664   5.766 -0.6175 -0.3367  0.9521
  168DOPC   C3623147   8.377  12.535   5.738 -0.6700 -0.3722  0.3262
  168DOPC   H6X23148   8.455  12.487   5.800  0.8320 -0.3816 -1.4826
  168DOPC   H6Y23149   8.329  12.456   5.676 -1.6390  0.0750  0.4921
  168DOPC   C3723150   8.450  12.628   5.631 -0.2607  0.2448 -0.6412
  168DOPC   H7X23151   8.479  12.558   5.549 -0.5541 -1.4382  0.6362
  168DOPC   H7Y23152   8.379  12.694   5.577  0.7900  0.8351 -1.3470
  168DOPC   C3823153   8.564  12.716   5.691  0.1786 -0.9736  1.1492
  168DOPC   H8X23154   8.652  12.657   5.725  0.5635 -0.1817  1.5694
  168DOPC   H8Y23155   8.524  12.761   5.785  0.2132  0.6203  0.4266
  168DOPC   C3923156   8.608  12.829   5.599 -0.3920  0.4037 -0.4211
  168DOPC   H9X23157   8.540  12.915   5.588  0.6521  1.1020 -1.8919
  168DOPC  C31023158   8.723  12.833   5.538  0.4084  0.8746 -0.2363
  168DOPC  H10X23159   8.759  12.927   5.494  1.2657  1.0612  0.8129
  168DOPC  C31123160   8.824  12.720   5.534 -0.7356 -0.0123  0.3003
  168DOPC  H11X23161   8.782  12.626   5.575 -1.0493  0.4471  1.0647
  168DOPC  H11Y23162   8.916  12.743   5.592 -0.8918 -0.0573  0.5680
  168DOPC  C31223163   8.875  12.695   5.391 -0.1194  0.4967 -0.4488
  168DOPC  H12X23164   8.789  12.640   5.346 -0.1658  1.6877 -1.8745
  168DOPC  H12Y23165   8.968  12.635   5.399 -0.1143  0.0945 -2.7163
  168DOPC  C31323166   8.917  12.825   5.313 -0.1406 -0.5063 -0.1002
  168DOPC  H13X23167   8.825  12.887   5.302  1.1761  1.6674  0.6881
  168DOPC  H13Y23168   8.997  12.868   5.376  1.1868 -0.9555 -1.4321
  168DOPC  C31423169   8.975  12.791   5.174 -0.0536 -0.2044 -0.3019
  168DOPC  H14X23170   9.071  12.737   5.192  0.2035  0.4593  0.3814
  168DOPC  H14Y23171   8.908  12.723   5.118 -1.6080 -0.7686  2.0822
  168DOPC  C31523172   9.018  12.913   5.089 -0.1416  0.3953 -0.1142
  168DOPC  H15X23173   9.091  12.981   5.136 -0.6213  0.4826  0.5242
  168DOPC  H15Y23174   8.921  12.964   5.068  0.6157  1.8617 -0.1244
  168DOPC  C31623175   9.077  12.872   4.954  0.0346  0.2591 -0.0541
  168DOPC  H16X23176   9.175  12.821   4.966  0.9744  2.2269  1.3039
  168DOPC  H16Y23177   9.012  12.794   4.911 -0.5412  0.5533  0.2749
  168DOPC  C31723178   9.097  12.991   4.863 -0.5761  0.2707  0.9201
  168DOPC  H17X23179   9.006  13.055   4.862 -1.0147 -0.2902  2.6977
  168DOPC  H17Y23180   9.183  13.053   4.897 -0.5320  0.7128  0.0529
  168DOPC  C31823181   9.142  12.947   4.720 -0.3035  1.1258 -0.3238
  168DOPC  H18X23182   9.231  12.883   4.737 -2.2229 -1.2434  1.3521
  168DOPC  H18Y23183   9.070  12.877   4.672  0.1038 -0.3115  1.0898
  168DOPC  H18Z23184   9.163  13.033   4.652  0.7853  0.1358 -1.2768
  169DOPC     N23185  11.578   6.446   5.471  0.0612 -0.1202  0.3458
  169DOPC   C1223186  11.617   6.593   5.481  0.0709 -0.3832  0.1985
  169DOPC  H12A23187  11.672   6.619   5.392 -2.1327 -0.3364 -1.2234
  169DOPC  H12B23188  11.673   6.586   5.572 -0.0125  0.0660  0.2844
  169DOPC   C1323189  11.463   6.434   5.379  0.5021 -0.4914 -0.3373
  169DOPC  H13A23190  11.385   6.503   5.409  1.5409  1.3795 -1.7509
  169DOPC  H13B23191  11.489   6.466   5.280  0.1516 -0.1327 -0.3155
  169DOPC  H13C23192  11.426   6.333   5.390  0.8593 -0.5359  0.5544
  169DOPC   C1423193  11.560   6.388   5.600  0.1216  0.1742  0.3071
  169DOPC  H14A23194  11.533   6.283   5.594 -0.5933  0.3692 -0.0556
  169DOPC  H14B23195  11.649   6.394   5.661  0.6923  0.8848 -0.5652
  169DOPC  H14C23196  11.473   6.424   5.653 -0.7417  0.0536 -0.9753
  169DOPC   C1523197  11.694   6.377   5.408 -0.5977 -0.0169  0.1249
  169DOPC  H15A23198  11.661   6.283   5.366 -0.8667 -0.3151  0.9793
  169DOPC  H15B23199  11.767   6.352   5.484  0.4075  2.2763 -0.0129
  169DOPC  H15C23200  11.747   6.440   5.338  0.3727  1.0523  1.7541
  169DOPC   C1123201  11.503   6.686   5.515 -0.3290 -0.2136  0.4929
  169DOPC  H11A23202  11.565   6.777   5.527  0.1912 -0.3887 -0.7295
  169DOPC  H11B23203  11.432   6.692   5.429 -1.6644 -1.4261  1.4628
  169DOPC     P23204  11.335   6.799   5.674  0.1089 -0.2887 -0.0035
  169DOPC   O1323205  11.429   6.906   5.721  0.0673 -0.6420  0.1940
  169DOPC   O1423206  11.229   6.741   5.762 -0.5311 -0.0402  0.0475
  169DOPC   O1223207  11.419   6.669   5.624  0.0939 -0.3475 -0.6031
  169DOPC   O1123208  11.277   6.837   5.531 -0.0192 -0.4426  0.3103
  169DOPC    C123209  11.167   6.767   5.478  0.1930  0.1421 -0.1152
  169DOPC    HA23210  11.072   6.806   5.520  0.9495  1.4229  0.4843
  169DOPC    HB23211  11.182   6.662   5.509 -0.9866 -0.0766 -0.2425
  169DOPC    C223212  11.171   6.764   5.326  0.3279 -0.3397 -0.0048
  169DOPC    HS23213  11.275   6.742   5.294 -0.4345  0.9254 -3.7764
  169DOPC   O2123214  11.140   6.889   5.269  0.4170  0.3647 -0.1936
  169DOPC   C2123215  11.180   6.899   5.144 -0.0709 -0.1787  0.2991
  169DOPC   O2223216  11.268   6.835   5.083  0.2163  0.2145  0.2542
  169DOPC   C2223217  11.090   6.995   5.066  0.5756  0.2758  0.2405
  169DOPC   H2R23218  11.142   7.092   5.050  0.3974  0.3138 -0.1281
  169DOPC   H2S23219  11.001   7.021   5.126  0.4382  2.1370 -0.6686
  169DOPC    C323220  11.075   6.654   5.270  0.5087 -0.2939 -0.5225
  169DOPC    HX23221  10.981   6.705   5.301  0.3433 -1.0148  0.2168
  169DOPC    HY23222  11.071   6.560   5.329  1.6452  1.3167  2.2864
  169DOPC   O3123223  11.074   6.644   5.127  0.1728  0.1559  0.1722
  169DOPC   C3123224  11.156   6.548   5.085 -0.0612 -0.2639  0.1107
  169DOPC   O3223225  11.217   6.472   5.153  0.9162  0.0587  0.2123
  169DOPC   C3223226  11.161   6.551   4.933 -0.3560  0.3931  0.2627
  169DOPC   H2X23227  11.067   6.559   4.875  0.5996 -1.0663 -1.5777
  169DOPC   H2Y23228  11.226   6.639   4.915 -0.4468  0.2197 -0.9494
  169DOPC   C2323229  11.050   6.944   4.922 -0.1584 -0.3425 -0.7371
  169DOPC   H3R23230  11.019   6.838   4.937 -1.7991  0.1408 -0.4982
  169DOPC   H3S23231  11.139   6.930   4.857 -0.3826 -0.5105 -1.0115
  169DOPC   C2423232  10.935   7.013   4.864 -0.2727 -0.5437  0.7100
  169DOPC   H4R23233  10.960   7.121   4.869  0.4235 -0.6706  0.1400
  169DOPC   H4S23234  10.843   6.991   4.922 -0.1434 -0.0647  1.1035
  169DOPC   C2523235  10.918   6.962   4.716  0.6899  0.2700 -0.0771
  169DOPC   H5R23236  10.815   6.990   4.687  0.3619 -0.7981  0.0074
  169DOPC   H5S23237  10.927   6.851   4.715  2.1895  0.3468  0.8077
  169DOPC   C2623238  11.010   7.037   4.618  0.8127 -0.3154 -0.3158
  169DOPC   H6R23239  11.116   7.018   4.643  0.9867  0.4516 -0.4303
  169DOPC   H6S23240  11.002   7.148   4.623 -2.7497 -0.4136 -0.8193
  169DOPC   C2723241  10.993   7.011   4.469  0.8975  0.1368  1.2015
  169DOPC   H7R23242  11.007   6.901   4.457  1.2664  0.0832  2.0786
  169DOPC   H7S23243  11.074   7.060   4.411 -0.2112 -0.5981 -1.0843
  169DOPC   C2823244  10.854   7.037   4.403  0.4162 -0.1085  0.7398
  169DOPC   H8R23245  10.779   6.968   4.444 -0.6820 -0.0935 -1.1339
  169DOPC   H8S23246  10.865   7.014   4.295 -0.0354  0.8880  0.4698
  169DOPC   C2923247  10.817   7.175   4.423 -0.4672 -0.6423 -0.7612
  169DOPC   H9R23248  10.805   7.203   4.529 -1.4823  0.6270 -1.1998
  169DOPC  C21023249  10.785   7.265   4.327 -0.0269  0.2085 -0.1181
  169DOPC  H10R23250  10.747   7.366   4.352 -0.8093  0.1291 -0.9300
  169DOPC  C21123251  10.767   7.234   4.177  0.1155  0.1285 -0.3744
  169DOPC  H11R23252  10.695   7.304   4.128 -0.2996 -1.8660 -2.8015
  169DOPC  H11S23253  10.732   7.129   4.170 -0.5822  0.0417  2.7002
  169DOPC  C21223254  10.902   7.251   4.105 -0.1109  0.5290  0.0605
  169DOPC  H12R23255  10.980   7.183   4.146 -0.1424  1.9751  2.7332
  169DOPC  H12S23256  10.935   7.354   4.129 -0.8084  0.6441  0.5473
  169DOPC  C21323257  10.891   7.216   3.954 -0.3733  0.7577 -0.3377
  169DOPC  H13R23258  10.813   7.283   3.912  0.0428  1.2864 -0.2799
  169DOPC  H13S23259  10.865   7.110   3.937  1.6031  0.2237 -0.3804
  169DOPC  C21423260  11.030   7.230   3.890  0.5633 -0.2650 -0.1054
  169DOPC  H14R23261  11.103   7.183   3.958  2.1468 -1.4528 -2.4975
  169DOPC  H14S23262  11.055   7.338   3.887  0.1172 -0.1731 -1.0621
  169DOPC  C21523263  11.053   7.181   3.749  0.1833  0.0317  0.7616
  169DOPC  H15R23264  11.141   7.241   3.717 -0.4697 -0.2619 -1.8170
  169DOPC  H15S23265  10.969   7.213   3.684  1.1596  2.4107  0.5425
  169DOPC  C21623266  11.079   7.028   3.732  0.2496  0.3338 -0.3288
  169DOPC  H16R23267  11.011   6.963   3.791  0.0873 -1.5416 -2.4456
  169DOPC  H16S23268  11.179   7.032   3.781  1.3956  4.5638 -2.5531
  169DOPC  C21723269  11.084   6.972   3.589 -0.1924 -0.1110  0.2974
  169DOPC  H17R23270  10.980   6.974   3.550  0.4238  0.9366 -1.3748
  169DOPC  H17S23271  11.114   6.866   3.597 -1.5607 -0.4876  0.7050
  169DOPC  C21823272  11.171   7.047   3.487  0.2820 -0.8224  0.1626
  169DOPC  H18R23273  11.279   7.035   3.507 -0.3573 -1.6693  3.7785
  169DOPC  H18S23274  11.143   7.154   3.477 -0.2484 -1.1399 -2.8243
  169DOPC  H18T23275  11.157   7.006   3.385  2.9809  0.5538 -0.8675
  169DOPC   C3323276  11.239   6.427   4.874 -0.1397  0.3524 -0.1283
  169DOPC   H3X23277  11.333   6.413   4.931 -1.1936 -0.2942  1.5283
  169DOPC   H3Y23278  11.269   6.447   4.769 -1.0698  1.0419 -0.2795
  169DOPC   C3423279  11.156   6.296   4.883  0.0284 -0.1466 -0.1081
  169DOPC   H4X23280  11.064   6.308   4.823  0.0842  0.1619 -0.1372
  169DOPC   H4Y23281  11.132   6.279   4.990  2.5028 -1.6319  0.3065
  169DOPC   C3523282  11.223   6.169   4.827 -0.2427 -0.7681  0.0072
  169DOPC   H5X23283  11.137   6.099   4.824 -1.7875  0.7752  3.3786
  169DOPC   H5Y23284  11.291   6.133   4.907  0.1171 -1.1562 -0.4666
  169DOPC   C3623285  11.275   6.177   4.685 -0.9131  0.0790  0.6508
  169DOPC   H6X23286  11.194   6.201   4.613 -0.4404  1.1499  0.4519
  169DOPC   H6Y23287  11.354   6.255   4.680 -0.8875 -0.0061 -1.2714
  169DOPC   C3723288  11.330   6.042   4.630 -0.7329  0.3459 -0.2566
  169DOPC   H7X23289  11.394   5.997   4.709 -2.4344 -1.3375  0.2297
  169DOPC   H7Y23290  11.248   5.969   4.612  0.2686 -0.7541 -0.5675
  169DOPC   C3823291  11.391   6.061   4.494 -0.6832  0.1100  0.5112
  169DOPC   H8X23292  11.474   6.134   4.508 -0.1956 -0.5852  1.3740
  169DOPC   H8Y23293  11.317   6.116   4.431  0.7575  2.1402  0.4771
  169DOPC   C3923294  11.449   5.940   4.435  0.3112  1.3590  0.4845
  169DOPC   H9X23295  11.554   5.914   4.458  0.4960 -1.1250 -2.5733
  169DOPC  C31023296  11.390   5.852   4.348 -0.5436  0.3185  0.3715
  169DOPC  H10X23297  11.443   5.761   4.315 -1.7653  0.5770 -2.6856
  169DOPC  C31123298  11.250   5.849   4.293 -0.4143 -0.0752  0.3897
  169DOPC  H11X23299  11.177   5.895   4.364 -1.1535 -0.6722  0.0344
  169DOPC  H11Y23300  11.210   5.746   4.277  0.1965 -0.2877  0.2379
  169DOPC  C31223301  11.254   5.930   4.162 -0.4399  0.2891  0.3695
  169DOPC  H12X23302  11.316   5.884   4.082  0.4444  3.7075 -1.0966
  169DOPC  H12Y23303  11.296   6.031   4.177 -0.2173  0.3799 -0.8225
  169DOPC  C31323304  11.111   5.930   4.087  0.1016 -0.1060 -0.7319
  169DOPC  H13X23305  11.056   6.016   4.132 -1.1410 -1.1001 -0.2695
  169DOPC  H13Y23306  11.128   5.952   3.980  0.7663 -0.4979 -0.7106
  169DOPC  C31423307  11.016   5.806   4.093  0.2194 -1.6649 -0.5088
  169DOPC  H14X23308  11.077   5.717   4.066 -0.1966 -3.0384  2.5521
  169DOPC  H14Y23309  10.974   5.798   4.196  1.8813  2.0305  0.6337
  169DOPC  C31523310  10.909   5.826   3.988  0.3443 -0.1390 -0.9311
  169DOPC  H15X23311  10.973   5.835   3.898  2.3393 -0.7156  0.3627
  169DOPC  H15Y23312  10.858   5.920   4.019 -2.6130 -2.6564  2.7338
  169DOPC  C31623313  10.805   5.705   3.978 -0.4832 -0.2172 -0.1448
  169DOPC  H16X23314  10.866   5.620   4.017  1.3663  0.8454 -0.5674
  169DOPC  H16Y23315  10.715   5.715   4.042 -0.6519  0.6169 -0.5107
  169DOPC  C31723316  10.772   5.666   3.835  0.2306  0.1431  0.0845
  169DOPC  H17X23317  10.865   5.642   3.779  1.8061  3.0331  1.2788
  169DOPC  H17Y23318  10.709   5.576   3.852 -0.5439  1.1543  3.2575
  169DOPC  C31823319  10.709   5.779   3.758  0.6640 -0.1260 -0.2323
  169DOPC  H18X23320  10.699   5.756   3.650 -2.7779 -3.5198  0.5788
  169DOPC  H18Y23321  10.615   5.818   3.801  2.4441  2.0330  2.0321
  169DOPC  H18Z23322  10.789   5.856   3.768 -1.0784  1.7050  0.1271
  170DOPC     N23323   2.475   7.362   6.475  0.4265 -0.2111 -0.0835
  170DOPC   C1223324   2.392   7.423   6.581  0.2928  0.1008 -0.2971
  170DOPC  H12A23325   2.413   7.528   6.597 -1.5006  0.8565 -2.3733
  170DOPC  H12B23326   2.410   7.375   6.676 -0.5553 -0.7026 -0.5250
  170DOPC   C1323327   2.614   7.335   6.527  0.4603 -0.1554 -0.2657
  170DOPC  H13A23328   2.613   7.276   6.618 -0.7910 -0.5592 -0.5268
  170DOPC  H13B23329   2.672   7.275   6.459 -0.6185 -0.5605 -0.8571
  170DOPC  H13C23330   2.675   7.421   6.550  2.0398 -1.1726 -0.4882
  170DOPC   C1423331   2.498   7.448   6.353  0.2260  0.5150  0.0957
  170DOPC  H14A23332   2.409   7.479   6.301 -0.3104 -0.5636  0.3539
  170DOPC  H14B23333   2.552   7.539   6.376 -0.3860  0.8949  0.0604
  170DOPC  H14C23334   2.559   7.389   6.286 -0.7208 -2.5469  1.7116
  170DOPC   C1523335   2.409   7.233   6.432 -0.0885 -0.4717 -0.0183
  170DOPC  H15A23336   2.414   7.156   6.507 -0.6844 -0.3879  0.1142
  170DOPC  H15B23337   2.461   7.193   6.346  0.6112 -2.7604  1.3735
  170DOPC  H15C23338   2.304   7.251   6.412 -0.0744  1.4688  1.4277
  170DOPC   C1123339   2.237   7.423   6.558 -0.4521 -0.0809  0.3212
  170DOPC  H11A23340   2.195   7.325   6.587  1.1652 -0.2999  2.1211
  170DOPC  H11B23341   2.186   7.492   6.628  0.9792  1.4649 -0.0801
  170DOPC     P23342   2.099   7.413   6.341  0.2778  0.2421 -0.0022
  170DOPC   O1323343   1.968   7.442   6.396  0.3954 -0.2110  0.3669
  170DOPC   O1423344   2.128   7.268   6.315  0.0605 -0.3620 -0.5114
  170DOPC   O1223345   2.220   7.472   6.428 -0.2305 -0.5674  0.3213
  170DOPC   O1123346   2.115   7.493   6.204 -0.2926 -0.2748 -0.0369
  170DOPC    C123347   2.121   7.638   6.221 -0.0296  0.5207 -0.6464
  170DOPC    HA23348   2.206   7.672   6.283 -1.1544  1.5460  0.4063
  170DOPC    HB23349   2.032   7.685   6.269  0.1602  0.1575  0.0705
  170DOPC    C223350   2.146   7.709   6.086  0.0589  0.2252 -0.3601
  170DOPC    HS23351   2.169   7.818   6.090 -1.5389  0.6267 -1.0643
  170DOPC   O2123352   2.035   7.682   6.006 -0.6130  0.3314  0.2122
  170DOPC   C2123353   1.955   7.787   5.987  0.3732 -0.2112 -0.0469
  170DOPC   O2223354   1.972   7.897   6.031 -0.4729  0.6906  0.2607
  170DOPC   C2223355   1.853   7.750   5.885 -0.2325 -0.4640  0.0647
  170DOPC   H2R23356   1.754   7.783   5.925  0.6766  0.8700  1.2970
  170DOPC   H2S23357   1.861   7.641   5.865 -0.9968 -0.0560 -2.9040
  170DOPC    C323358   2.262   7.643   6.017  0.4953 -0.1724 -0.2342
  170DOPC    HX23359   2.228   7.546   5.975  2.7282 -0.8545 -0.6198
  170DOPC    HY23360   2.343   7.628   6.091  0.5792  1.4482  0.0292
  170DOPC   O3123361   2.326   7.725   5.918 -0.3889  1.1983 -0.3994
  170DOPC   C3123362   2.427   7.653   5.863  0.6717 -0.6295 -0.5637
  170DOPC   O3223363   2.467   7.543   5.893 -0.1913  0.4237 -0.5201
  170DOPC   C3223364   2.484   7.743   5.755 -0.2551 -0.1869 -0.3122
  170DOPC   H2X23365   2.442   7.845   5.770  1.1251 -0.0160  3.8307
  170DOPC   H2Y23366   2.592   7.752   5.778 -0.5131 -1.8770  1.9209
  170DOPC   C2323367   1.884   7.810   5.745 -0.1961 -0.4599  0.2281
  170DOPC   H3R23368   1.905   7.919   5.758 -0.9248 -0.2827 -0.0146
  170DOPC   H3S23369   1.785   7.806   5.694 -2.1348 -0.9615  3.6968
  170DOPC   C2423370   1.992   7.731   5.671 -0.7065  0.2631  0.7117
  170DOPC   H4R23371   1.974   7.623   5.692  0.9327  0.0789  1.2864
  170DOPC   H4S23372   2.090   7.751   5.718 -0.6932 -1.8493  1.7084
  170DOPC   C2523373   2.001   7.769   5.519 -0.2237 -0.1511 -0.1065
  170DOPC   H5R23374   1.903   7.757   5.470 -0.3576  1.0310 -0.1405
  170DOPC   H5S23375   2.086   7.708   5.481 -0.4669 -0.4126 -0.2346
  170DOPC   C2623376   2.048   7.916   5.502  0.2400 -0.4324 -0.4898
  170DOPC   H6R23377   2.149   7.932   5.547 -1.1567  3.8799  1.6822
  170DOPC   H6S23378   1.988   7.988   5.562 -0.0453 -0.7396 -0.4060
  170DOPC   C2723379   2.064   7.962   5.356 -0.7176 -0.3499  0.0799
  170DOPC   H7R23380   2.142   7.904   5.302 -0.1591 -1.3797  1.8801
  170DOPC   H7S23381   2.090   8.069   5.345 -1.8945  0.1735  1.9400
  170DOPC   C2823382   1.935   7.955   5.269  0.3142 -0.4725 -0.3455
  170DOPC   H8R23383   1.943   8.026   5.183 -2.1685 -0.1580 -0.3799
  170DOPC   H8S23384   1.845   7.997   5.318 -0.1469  1.1001 -2.3913
  170DOPC   C2923385   1.898   7.825   5.202 -0.5422 -0.1873  0.9341
  170DOPC   H9R23386   1.838   7.753   5.260 -0.8195 -2.0980 -1.5828
  170DOPC  C21023387   1.936   7.785   5.081  0.5587 -0.3379 -0.5581
  170DOPC  H10R23388   1.883   7.695   5.046 -0.0594 -0.5643  0.8947
  170DOPC  C21123389   2.035   7.848   4.988 -0.0155  0.2060 -0.1917
  170DOPC  H11R23390   2.117   7.778   4.960  0.1827  0.2673  0.2339
  170DOPC  H11S23391   2.088   7.927   5.046 -0.2871  0.8530 -0.8127
  170DOPC  C21223392   1.983   7.907   4.864 -0.7865 -0.2650  0.1193
  170DOPC  H12R23393   2.066   7.953   4.808 -1.7612  1.1915 -0.1728
  170DOPC  H12S23394   1.916   7.991   4.891  2.6934  3.0171 -0.6520
  170DOPC  C21323395   1.919   7.807   4.771  1.1439  1.0605 -0.4695
  170DOPC  H13R23396   1.835   7.865   4.727  0.5301  1.2453  0.8917
  170DOPC  H13S23397   1.860   7.725   4.817 -0.6652  0.9098 -2.8322
  170DOPC  C21423398   2.012   7.738   4.671  0.0817 -0.0038  0.0657
  170DOPC  H14R23399   2.068   7.660   4.728  0.8457  0.1318 -0.4772
  170DOPC  H14S23400   2.087   7.813   4.638 -0.3602  0.5117  0.2426
  170DOPC  C21523401   1.952   7.671   4.547  0.6987  0.0078  0.4800
  170DOPC  H15R23402   1.874   7.732   4.495  1.3133 -0.1820 -0.6929
  170DOPC  H15S23403   1.888   7.592   4.590 -0.8448  0.3636 -1.0572
  170DOPC  C21623404   2.043   7.600   4.453 -0.1810  0.0604 -0.1937
  170DOPC  H16R23405   1.983   7.541   4.380  1.6562 -0.6442 -1.1849
  170DOPC  H16S23406   2.103   7.521   4.504  2.6393  2.4864  0.4764
  170DOPC  C21723407   2.140   7.695   4.384  0.9673  0.3165 -0.4186
  170DOPC  H17R23408   2.223   7.635   4.340  0.3958 -0.5945 -0.2707
  170DOPC  H17S23409   2.190   7.770   4.449 -0.1275  1.1901 -0.5548
  170DOPC  C21823410   2.078   7.771   4.272 -0.0250 -0.3128  0.3928
  170DOPC  H18R23411   1.990   7.836   4.293 -0.0838 -0.9503  2.3118
  170DOPC  H18S23412   2.046   7.705   4.189 -0.0513 -0.5981  0.6276
  170DOPC  H18T23413   2.146   7.841   4.219  0.1667 -1.3325 -0.7359
  170DOPC   C3323414   2.458   7.688   5.614 -0.3553 -0.0110 -0.5753
  170DOPC   H3X23415   2.354   7.652   5.603  0.0311 -0.9332 -1.4302
  170DOPC   H3Y23416   2.519   7.598   5.588  0.8887  1.2487 -2.3138
  170DOPC   C3423417   2.473   7.800   5.512  0.3447 -0.1604  0.4415
  170DOPC   H4X23418   2.581   7.827   5.513  0.2627  0.1644  0.6140
  170DOPC   H4Y23419   2.433   7.899   5.543  1.7594  1.9275 -3.7245
  170DOPC   C3523420   2.418   7.773   5.367 -0.2992 -0.2481 -0.1445
  170DOPC   H5X23421   2.309   7.794   5.373  0.1904  2.4188  0.8120
  170DOPC   H5Y23422   2.444   7.666   5.349 -0.6115 -0.4714  0.6926
  170DOPC   C3623423   2.477   7.871   5.255  0.6014 -0.3952  0.8053
  170DOPC   H6X23424   2.459   7.977   5.284 -1.1715 -0.5460  0.3728
  170DOPC   H6Y23425   2.587   7.861   5.240  0.6250 -0.1985  0.8413
  170DOPC   C3723426   2.403   7.843   5.120  0.3025  0.5131 -0.0148
  170DOPC   H7X23427   2.418   7.738   5.086  1.6256  0.0251  1.9022
  170DOPC   H7Y23428   2.296   7.851   5.149 -0.1617 -2.4478 -0.5373
  170DOPC   C3823429   2.444   7.934   5.012  0.2958 -0.6761  0.2075
  170DOPC   H8X23430   2.529   7.885   4.960  1.0163  1.9681 -1.2852
  170DOPC   H8Y23431   2.479   8.031   5.053 -2.2378  0.6022 -0.5045
  170DOPC   C3923432   2.341   7.959   4.904  0.6064  0.4019 -1.3110
  170DOPC   H9X23433   2.259   8.022   4.941 -1.3980 -2.6675 -0.1348
  170DOPC  C31023434   2.351   7.934   4.768  0.0131 -0.2049 -0.6394
  170DOPC  H10X23435   2.269   7.964   4.701 -0.7464 -0.5107  0.1319
  170DOPC  C31123436   2.454   7.857   4.691 -0.6071  0.3155  0.4690
  170DOPC  H11X23437   2.410   7.777   4.629 -0.0069  0.3675 -0.0362
  170DOPC  H11Y23438   2.525   7.808   4.762 -2.5448 -0.0491  2.2686
  170DOPC  C31223439   2.531   7.947   4.585 -0.3697  0.1003  0.0214
  170DOPC  H12X23440   2.601   7.873   4.541 -0.6669 -1.3484  1.8439
  170DOPC  H12Y23441   2.568   8.044   4.626  0.2390 -0.0458 -0.1732
  170DOPC  C31323442   2.429   7.990   4.474 -0.5786 -0.6527 -0.0613
  170DOPC  H13X23443   2.363   7.912   4.430 -2.3633  0.8778 -0.1802
  170DOPC  H13Y23444   2.363   8.066   4.520  0.4029  1.0599 -1.3715
  170DOPC  C31423445   2.509   8.033   4.354 -0.0649 -0.1657 -0.3153
  170DOPC  H14X23446   2.587   8.101   4.394 -0.3784 -0.0072  0.0277
  170DOPC  H14Y23447   2.566   7.945   4.315 -0.8968 -1.1570  0.6640
  170DOPC  C31523448   2.445   8.121   4.245  0.6986 -0.3118  0.1062
  170DOPC  H15X23449   2.398   8.206   4.299  0.6523 -1.3027  1.6960
  170DOPC  H15Y23450   2.352   8.064   4.221 -0.8788  1.1681  2.2657
  170DOPC  C31623451   2.538   8.171   4.131  0.2013  0.3113 -0.4291
  170DOPC  H16X23452   2.630   8.208   4.182 -0.6453 -0.8554  2.1009
  170DOPC  H16Y23453   2.565   8.087   4.063 -1.8143  0.2124 -1.1423
  170DOPC  C31723454   2.482   8.279   4.033 -0.0138 -0.2243 -0.2497
  170DOPC  H17X23455   2.541   8.278   3.940 -1.2866 -2.4262 -1.1058
  170DOPC  H17Y23456   2.390   8.239   3.985 -0.0384  0.4074 -0.7376
  170DOPC  C31823457   2.467   8.418   4.096 -0.6900  0.0207 -0.1162
  170DOPC  H18X23458   2.452   8.496   4.018  2.9325 -0.7783 -1.7874
  170DOPC  H18Y23459   2.374   8.419   4.157 -1.3151 -2.2797 -0.9483
  170DOPC  H18Z23460   2.551   8.445   4.164 -0.3641 -1.2061 -0.0162
  171DOPC     N23461   1.895   4.878   5.684  0.2303 -0.3744  0.4949
  171DOPC   C1223462   2.044   4.869   5.685 -0.0964  0.0998 -1.3219
  171DOPC  H12A23463   2.092   4.826   5.772  0.1275  0.4315 -1.2791
  171DOPC  H12B23464   2.084   4.968   5.706  0.8463 -0.3943 -0.6816
  171DOPC   C1323465   1.839   4.740   5.646 -0.3607  0.4146 -0.7903
  171DOPC  H13A23466   1.874   4.674   5.723 -0.2239 -0.0268 -1.2253
  171DOPC  H13B23467   1.732   4.748   5.651 -0.5180  0.1618 -2.7477
  171DOPC  H13C23468   1.879   4.699   5.554 -0.2569 -2.1525  0.3344
  171DOPC   C1423469   1.838   4.971   5.582 -0.4992  0.4210  0.1089
  171DOPC  H14A23470   1.864   4.938   5.482  1.6037  1.2382  0.3362
  171DOPC  H14B23471   1.731   4.982   5.577 -0.5074  0.4063  0.2605
  171DOPC  H14C23472   1.889   5.066   5.595 -1.0573  0.8714 -0.8982
  171DOPC   C1523473   1.845   4.913   5.819 -0.2531  0.7193  0.3252
  171DOPC  H15A23474   1.885   4.846   5.894  0.5051 -0.7954 -1.3503
  171DOPC  H15B23475   1.737   4.904   5.815 -0.1107 -3.1737  0.8178
  171DOPC  H15C23476   1.870   5.010   5.858  0.8464 -0.0173  1.5430
  171DOPC   C1123477   2.125   4.822   5.559 -0.4601 -0.6447 -0.9070
  171DOPC  H11A23478   2.102   4.873   5.463 -0.9617 -1.0276 -0.9944
  171DOPC  H11B23479   2.228   4.848   5.593 -0.2246  0.5363 -2.4410
  171DOPC     P23480   2.209   4.582   5.562  0.3225  0.3602 -0.1602
  171DOPC   O1323481   2.149   4.448   5.535  0.8593  0.0884 -0.3955
  171DOPC   O1423482   2.257   4.604   5.705 -0.1230 -0.2554 -0.1652
  171DOPC   O1223483   2.101   4.690   5.526  0.1974 -0.2693  0.3731
  171DOPC   O1123484   2.328   4.612   5.461 -0.3326  0.0298  0.3044
  171DOPC    C123485   2.312   4.624   5.318  0.2013 -0.0920  0.2311
  171DOPC    HA23486   2.222   4.680   5.284  1.3258  1.5806 -0.1129
  171DOPC    HB23487   2.315   4.519   5.281 -1.6034 -0.4930  1.1187
  171DOPC    C223488   2.439   4.695   5.258  0.8349 -0.6863 -0.6350
  171DOPC    HS23489   2.417   4.712   5.151  1.3887  0.4433 -0.5880
  171DOPC   O2123490   2.563   4.622   5.274  0.5510 -0.2643  0.1892
  171DOPC   C2123491   2.585   4.530   5.184  0.8640  0.7649  0.2450
  171DOPC   O2223492   2.518   4.519   5.080  0.0071 -0.4916  0.1531
  171DOPC   C2223493   2.718   4.461   5.219 -0.9648  0.1663  0.1636
  171DOPC   H2R23494   2.693   4.366   5.271 -2.1947 -0.9050 -2.2123
  171DOPC   H2S23495   2.777   4.538   5.273  0.8243 -0.6367 -0.5487
  171DOPC    C323496   2.455   4.831   5.327  0.3092 -1.0970 -0.2258
  171DOPC    HX23497   2.485   4.822   5.434 -0.5809 -0.4968  0.0908
  171DOPC    HY23498   2.359   4.887   5.329  2.4446  2.9626  0.2767
  171DOPC   O3123499   2.539   4.912   5.249  0.1755 -0.4683 -0.1432
  171DOPC   C3123500   2.665   4.913   5.279 -0.4944  0.2808 -0.4929
  171DOPC   O3223501   2.711   4.876   5.386 -0.2653 -0.0979  0.0620
  171DOPC   C3223502   2.737   4.958   5.154  0.5387 -0.2029 -0.1374
  171DOPC   H2X23503   2.703   5.060   5.127  0.3942 -0.4436 -0.8793
  171DOPC   H2Y23504   2.843   4.967   5.188  0.5192  1.3196 -0.3958
  171DOPC   C2323505   2.803   4.439   5.100  0.1133  0.4639  0.6779
  171DOPC   H3R23506   2.806   4.524   5.029 -0.1721 -0.8212 -0.9578
  171DOPC   H3S23507   2.763   4.362   5.031  0.9440  1.0674 -0.5138
  171DOPC   C2423508   2.948   4.408   5.137  0.3572  0.5481 -0.1229
  171DOPC   H4R23509   2.942   4.314   5.194  1.8626 -0.0141 -0.8316
  171DOPC   H4S23510   2.981   4.476   5.218 -2.3817  0.9371  0.7572
  171DOPC   C2523511   3.047   4.379   5.026  0.2761 -0.4432 -0.2324
  171DOPC   H5R23512   3.075   4.480   4.989 -2.4128  0.3309 -0.3690
  171DOPC   H5S23513   3.000   4.327   4.940  1.0490  0.9060 -1.5091
  171DOPC   C2623514   3.170   4.296   5.071 -0.6519  0.0559  0.2985
  171DOPC   H6R23515   3.132   4.209   5.129  1.6885 -0.3789  1.3098
  171DOPC   H6S23516   3.241   4.349   5.138  1.9737 -0.2285 -2.0955
  171DOPC   C2723517   3.253   4.232   4.951 -0.8717  0.5021  0.0202
  171DOPC   H7R23518   3.294   4.311   4.885  1.3896  0.6869  1.5538
  171DOPC   H7S23519   3.188   4.177   4.880 -1.0183  0.1013  0.4576
  171DOPC   C2823520   3.352   4.125   4.997  0.4829  0.0147 -0.3740
  171DOPC   H8R23521   3.386   4.069   4.906  0.7160 -0.3650 -0.0574
  171DOPC   H8S23522   3.293   4.053   5.057  0.1028  1.0988  0.5790
  171DOPC   C2923523   3.473   4.181   5.067  0.3089 -1.1150  0.4688
  171DOPC   H9R23524   3.447   4.253   5.146  1.2390  1.9138 -1.7724
  171DOPC  C21023525   3.604   4.161   5.038  0.8375  0.0975  0.3752
  171DOPC  H10R23526   3.677   4.215   5.100 -0.8295  3.3739 -0.3255
  171DOPC  C21123527   3.665   4.058   4.942 -0.2485  0.1024  0.3157
  171DOPC  H11R23528   3.587   4.012   4.878 -0.1685 -0.3695  0.5562
  171DOPC  H11S23529   3.725   3.986   5.001 -0.0410 -0.3026 -0.3830
  171DOPC  C21223530   3.762   4.130   4.842 -0.0257  0.2733  0.4109
  171DOPC  H12R23531   3.842   4.178   4.902  0.5924 -2.1016  1.6082
  171DOPC  H12S23532   3.694   4.205   4.795  3.4953  2.0049 -2.4337
  171DOPC  C21323533   3.826   4.044   4.733  0.3864 -0.3003  0.3610
  171DOPC  H13R23534   3.909   3.989   4.782  0.1082 -1.1314 -0.0896
  171DOPC  H13S23535   3.868   4.129   4.675  0.1101  0.1050  0.7417
  171DOPC  C21423536   3.740   3.960   4.642  0.1117 -0.3366  0.4126
  171DOPC  H14R23537   3.642   4.007   4.621  0.1064 -1.2451 -1.8715
  171DOPC  H14S23538   3.708   3.866   4.693 -0.4018  1.2390  3.1846
  171DOPC  C21523539   3.818   3.916   4.514 -0.0534  0.1196  0.2337
  171DOPC  H15R23540   3.917   3.873   4.540  0.4595  1.2042  0.1114
  171DOPC  H15S23541   3.832   4.002   4.446  3.4629 -0.2590  0.2856
  171DOPC  C21623542   3.742   3.814   4.426 -0.3157 -0.4923 -0.6470
  171DOPC  H16R23543   3.643   3.857   4.404  0.6880  3.1937  1.1662
  171DOPC  H16S23544   3.727   3.719   4.482 -3.0110 -0.9872 -2.0579
  171DOPC  C21723545   3.819   3.775   4.298  0.2458 -0.1164  0.2496
  171DOPC  H17R23546   3.916   3.728   4.324 -0.0402 -0.0200  1.5629
  171DOPC  H17S23547   3.829   3.867   4.236 -0.5197  0.6823  1.2747
  171DOPC  C21823548   3.738   3.671   4.212 -0.3973  0.2774  0.2502
  171DOPC  H18R23549   3.640   3.706   4.172 -0.5329 -1.4712 -1.0711
  171DOPC  H18S23550   3.718   3.592   4.287  1.6634  1.3031  1.9802
  171DOPC  H18T23551   3.794   3.627   4.127 -0.6957  1.1391 -0.4070
  171DOPC   C3323552   2.718   4.848   5.030 -0.0899 -0.4144  0.4457
  171DOPC   H3X23553   2.744   4.742   5.053 -2.8916 -1.0082  1.3520
  171DOPC   H3Y23554   2.793   4.872   4.952 -0.4323 -2.6334 -0.6539
  171DOPC   C3423555   2.586   4.872   4.956 -0.2702  0.4069 -0.3598
  171DOPC   H4X23556   2.577   4.982   4.962  0.1186  0.3804  1.3157
  171DOPC   H4Y23557   2.503   4.824   5.013  0.8018  0.4947  1.3579
  171DOPC   C3523558   2.578   4.818   4.815 -0.1370 -0.0119 -0.0683
  171DOPC   H5X23559   2.668   4.857   4.763 -0.1312 -0.4066 -0.3645
  171DOPC   H5Y23560   2.491   4.870   4.769  0.3759 -0.2530 -1.3445
  171DOPC   C3623561   2.572   4.668   4.807  0.4062  0.0808  0.1348
  171DOPC   H6X23562   2.646   4.613   4.869  2.0789  1.3220 -0.6637
  171DOPC   H6Y23563   2.469   4.642   4.837  0.4221  0.9228  0.9793
  171DOPC   C3723564   2.598   4.605   4.672 -0.1066 -0.3242 -0.3834
  171DOPC   H7X23565   2.522   4.629   4.595 -0.7827 -0.4112  0.2442
  171DOPC   H7Y23566   2.698   4.629   4.631  0.6690 -2.8161 -0.1217
  171DOPC   C3823567   2.615   4.448   4.673  0.1254  0.0492 -0.2458
  171DOPC   H8X23568   2.691   4.431   4.752 -0.2037  1.7923  0.5028
  171DOPC   H8Y23569   2.657   4.417   4.575  0.5965  0.9547 -0.3432
  171DOPC   C3923570   2.489   4.374   4.702  0.3857  0.4586  0.2672
  171DOPC   H9X23571   2.436   4.395   4.796  1.0860 -1.0978  1.0489
  171DOPC  C31023572   2.444   4.267   4.630 -0.2610  0.1133  0.2448
  171DOPC  H10X23573   2.359   4.206   4.663  1.2003 -2.0502  0.2581
  171DOPC  C31123574   2.508   4.210   4.499 -0.8305  0.0294 -0.3988
  171DOPC  H11X23575   2.479   4.104   4.486  1.7434 -0.9818  1.3643
  171DOPC  H11Y23576   2.618   4.204   4.515 -0.7783 -1.7079 -1.2308
  171DOPC  C31223577   2.461   4.295   4.390  0.3014 -0.9469 -0.0668
  171DOPC  H12X23578   2.538   4.287   4.310  0.6385 -0.9273  0.2541
  171DOPC  H12Y23579   2.458   4.399   4.428 -0.3169 -1.2921  0.8616
  171DOPC  C31323580   2.308   4.272   4.347 -0.1098 -1.2178 -0.0121
  171DOPC  H13X23581   2.293   4.163   4.333  0.4698 -1.3240  0.1478
  171DOPC  H13Y23582   2.237   4.315   4.420 -0.9377 -0.8921 -0.9870
  171DOPC  C31423583   2.270   4.348   4.216  0.5556  0.5875  0.2571
  171DOPC  H14X23584   2.340   4.314   4.136  0.0634  1.5912 -0.6306
  171DOPC  H14Y23585   2.169   4.319   4.181  0.8463 -0.7683  0.5080
  171DOPC  C31523586   2.282   4.499   4.220 -0.1077 -0.2235 -0.2864
  171DOPC  H15X23587   2.260   4.548   4.122 -1.2037  2.6249  1.2677
  171DOPC  H15Y23588   2.386   4.530   4.242 -0.3059  0.3147 -0.1090
  171DOPC  C31623589   2.186   4.570   4.319 -0.6533  0.4289  0.6800
  171DOPC  H16X23590   2.200   4.532   4.423  2.6325  0.6794  0.4354
  171DOPC  H16Y23591   2.204   4.678   4.301 -1.2651  0.2345 -1.3328
  171DOPC  C31723592   2.041   4.552   4.278  0.3131  0.1270 -0.5105
  171DOPC  H17X23593   2.024   4.576   4.171 -3.7161 -1.2637 -0.3812
  171DOPC  H17Y23594   2.013   4.447   4.300 -2.7921  0.6459 -1.5056
  171DOPC  C31823595   1.952   4.644   4.354  0.6653 -0.1437  0.0920
  171DOPC  H18X23596   1.975   4.752   4.351 -1.3452  0.3433  0.6402
  171DOPC  H18Y23597   1.847   4.641   4.318  0.5182  1.2922  0.3611
  171DOPC  H18Z23598   1.951   4.626   4.464 -1.6425  2.3282  0.5567
  172DOPC     N23599   5.936   9.237   6.211  0.0942  0.1906 -0.4620
  172DOPC   C1223600   5.840   9.119   6.199  0.8317 -0.3905 -0.3629
  172DOPC  H12A23601   5.793   9.102   6.295 -1.3651 -0.0054 -1.3091
  172DOPC  H12B23602   5.894   9.028   6.179  1.4341 -0.3947  1.1644
  172DOPC   C1323603   5.973   9.295   6.076 -0.7356 -0.1704  0.0378
  172DOPC  H13A23604   6.058   9.360   6.091  0.5823 -1.7632 -0.1771
  172DOPC  H13B23605   6.004   9.212   6.013  0.2510  0.5534 -0.4630
  172DOPC  H13C23606   5.889   9.353   6.041 -1.2914 -1.3416 -0.6507
  172DOPC   C1423607   6.067   9.182   6.263 -0.0228 -0.2784 -0.0585
  172DOPC  H14A23608   6.105   9.112   6.191  1.0142  0.2360 -0.0300
  172DOPC  H14B23609   6.150   9.251   6.270  0.1166 -0.2998 -1.3092
  172DOPC  H14C23610   6.056   9.134   6.359 -1.1690 -1.5751 -0.7998
  172DOPC   C1523611   5.890   9.349   6.301  0.5491 -0.7361  0.8715
  172DOPC  H15A23612   5.949   9.439   6.296  0.3453 -0.4966  2.3028
  172DOPC  H15B23613   5.890   9.316   6.404 -1.3455 -1.7850  0.5816
  172DOPC  H15C23614   5.788   9.374   6.273  0.8831 -0.2627  0.0265
  172DOPC   C1123615   5.723   9.141   6.098 -0.3771 -0.0414  0.0901
  172DOPC  H11A23616   5.768   9.158   5.998 -1.1915  1.2610 -0.0815
  172DOPC  H11B23617   5.651   9.057   6.085 -0.7430  0.3889 -0.7491
  172DOPC     P23618   5.567   9.351   6.049 -0.1665  0.0001  0.3510
  172DOPC   O1323619   5.524   9.462   6.136  0.3354  0.0014  0.3597
  172DOPC   O1423620   5.454   9.299   5.966 -0.2180  0.4339  0.5993
  172DOPC   O1223621   5.640   9.248   6.145 -0.1262 -0.0950  0.2832
  172DOPC   O1123622   5.691   9.401   5.962  0.2211 -0.1601 -0.1700
  172DOPC    C123623   5.674   9.516   5.877 -0.4166  0.3789  0.0752
  172DOPC    HA23624   5.773   9.564   5.870  0.8379 -1.8098  1.4457
  172DOPC    HB23625   5.606   9.595   5.917  1.5483  3.1857 -1.7776
  172DOPC    C223626   5.636   9.463   5.734 -0.5108 -0.3147  0.0818
  172DOPC    HS23627   5.705   9.517   5.667  0.6609 -0.5252  1.0840
  172DOPC   O2123628   5.495   9.474   5.699 -0.2547  0.1753  0.2435
  172DOPC   C2123629   5.472   9.605   5.677  0.1738  0.9518  0.5083
  172DOPC   O2223630   5.556   9.690   5.668  0.1586 -0.5277  0.0555
  172DOPC   C2223631   5.327   9.631   5.643  0.0844  0.4257  0.6546
  172DOPC   H2R23632   5.276   9.695   5.718 -0.4428 -0.3144  0.9404
  172DOPC   H2S23633   5.267   9.537   5.643 -0.1699  0.5856  0.6969
  172DOPC    C323634   5.687   9.319   5.695 -0.9452  0.2958 -0.0474
  172DOPC    HX23635   5.629   9.247   5.758 -2.3474  2.8608  1.7623
  172DOPC    HY23636   5.792   9.306   5.732 -0.8560 -2.5610 -1.0501
  172DOPC   O3123637   5.686   9.295   5.549 -0.0216 -0.9534 -0.2706
  172DOPC   C3123638   5.585   9.238   5.499  0.3959 -0.2120  0.8229
  172DOPC   O3223639   5.494   9.184   5.557  0.2096  0.5377  1.1115
  172DOPC   C3223640   5.603   9.231   5.345  0.3041  0.3952 -0.8522
  172DOPC   H2X23641   5.596   9.337   5.311 -1.1557  1.2520  1.8183
  172DOPC   H2Y23642   5.705   9.194   5.318  0.3899 -0.1955  0.2278
  172DOPC   C2323643   5.317   9.702   5.509  0.3001  0.9925  0.1046
  172DOPC   H3R23644   5.353   9.807   5.520 -1.0663  1.3262  1.8833
  172DOPC   H3S23645   5.209   9.704   5.482 -0.0962 -0.4456  1.4252
  172DOPC   C2423646   5.389   9.627   5.397  0.3112  0.0266  0.2936
  172DOPC   H4R23647   5.347   9.525   5.408 -0.9960  0.5091  0.0035
  172DOPC   H4S23648   5.499   9.633   5.413  0.2136  2.4184  0.5374
  172DOPC   C2523649   5.356   9.680   5.253 -0.3821  0.4185  0.4928
  172DOPC   H5R23650   5.381   9.788   5.264  1.6163 -0.0940  1.4231
  172DOPC   H5S23651   5.250   9.665   5.223 -0.4117 -0.3311  0.9656
  172DOPC   C2623652   5.459   9.617   5.148 -0.5844 -1.0706 -0.2251
  172DOPC   H6R23653   5.451   9.506   5.148 -1.7995 -1.0058  1.1451
  172DOPC   H6S23654   5.565   9.641   5.170 -0.5782  0.2575 -1.5142
  172DOPC   C2723655   5.426   9.664   5.002  0.1859 -0.4516  0.0801
  172DOPC   H7R23656   5.484   9.596   4.936  1.1046 -0.0397  0.4542
  172DOPC   H7S23657   5.471   9.765   4.998 -1.4531  0.2845 -0.9935
  172DOPC   C2823658   5.280   9.687   4.963 -0.0776  0.2219 -0.0785
  172DOPC   H8R23659   5.279   9.740   4.865  1.8309  2.2280  0.9181
  172DOPC   H8S23660   5.232   9.755   5.037  0.0001 -1.0412  1.1775
  172DOPC   C2923661   5.196   9.562   4.956 -0.4428 -0.0336 -0.4568
  172DOPC   H9R23662   5.115   9.552   5.030 -0.2141  3.7096  0.5441
  172DOPC  C21023663   5.167   9.497   4.836 -0.1447  0.1095  0.6387
  172DOPC  H10R23664   5.108   9.405   4.832 -0.7514  0.5290 -0.5001
  172DOPC  C21123665   5.233   9.534   4.705 -0.1110  0.1396 -0.2800
  172DOPC  H11R23666   5.269   9.439   4.661 -1.4191 -1.8670  2.6691
  172DOPC  H11S23667   5.326   9.590   4.728 -0.6412  0.0722  2.2987
  172DOPC  C21223668   5.150   9.625   4.623 -0.1108 -0.0487 -0.0014
  172DOPC  H12R23669   5.153   9.721   4.677 -1.8042  0.8565 -1.4038
  172DOPC  H12S23670   5.043   9.595   4.617 -0.1922  0.4730 -1.4748
  172DOPC  C21323671   5.200   9.647   4.481 -0.1456  0.2935  0.0316
  172DOPC  H13R23672   5.201   9.548   4.431  0.9947  0.2995  0.0083
  172DOPC  H13S23673   5.308   9.673   4.481  0.0495 -0.0666 -3.1316
  172DOPC  C21423674   5.136   9.758   4.398 -0.1409 -0.2799  0.5245
  172DOPC  H14R23675   5.170   9.851   4.449  0.8883  0.9380 -2.2206
  172DOPC  H14S23676   5.024   9.756   4.399 -0.2035 -0.2029 -1.7683
  172DOPC  C21523677   5.182   9.769   4.256  0.0951 -0.1067  0.0732
  172DOPC  H15R23678   5.165   9.676   4.198  2.9596 -1.4933  1.2677
  172DOPC  H15S23679   5.293   9.770   4.254  0.0950  0.5733  0.2183
  172DOPC  C21623680   5.133   9.882   4.168  0.3584  0.3242 -0.2189
  172DOPC  H16R23681   5.199   9.968   4.192 -1.1215  2.0372 -1.9177
  172DOPC  H16S23682   5.029   9.915   4.188  0.5752  1.8028 -1.3739
  172DOPC  C21723683   5.147   9.851   4.016  0.6226  0.3353  0.3205
  172DOPC  H17R23684   5.102   9.750   4.002  0.6035  0.4811 -0.7590
  172DOPC  H17S23685   5.258   9.846   4.004  0.7430  0.8606  1.1328
  172DOPC  C21823686   5.100   9.957   3.921 -0.0715  0.8138 -0.1221
  172DOPC  H18R23687   5.124   9.931   3.816  0.9483  2.5589 -0.3469
  172DOPC  H18S23688   5.158  10.050   3.937  1.1088  0.2321 -0.9123
  172DOPC  H18T23689   4.990   9.970   3.929 -0.3988 -0.8853 -1.3838
  172DOPC   C3323690   5.510   9.146   5.273  0.5832  0.5259  0.0969
  172DOPC   H3X23691   5.404   9.171   5.291  0.3918  1.2060 -1.7898
  172DOPC   H3Y23692   5.520   9.044   5.315 -0.8896  0.3832  0.1263
  172DOPC   C3423693   5.532   9.153   5.122  0.1918 -0.3451  0.0329
  172DOPC   H4X23694   5.625   9.097   5.098  1.4682  1.1071  1.3200
  172DOPC   H4Y23695   5.542   9.257   5.085  0.9724 -1.0878 -1.9317
  172DOPC   C3523696   5.411   9.109   5.043 -0.0720 -0.0009 -0.1552
  172DOPC   H5X23697   5.314   9.151   5.075 -0.1521  0.0986 -0.5213
  172DOPC   H5Y23698   5.411   8.998   5.049 -0.3422 -0.1406 -2.1114
  172DOPC   C3623699   5.424   9.149   4.889  0.0022  1.2029  0.2683
  172DOPC   H6X23700   5.407   9.256   4.864  0.6969  0.5965 -3.4016
  172DOPC   H6Y23701   5.527   9.121   4.856 -0.4514 -3.1034  1.8000
  172DOPC   C3723702   5.327   9.068   4.807 -0.3899  0.1663 -0.5113
  172DOPC   H7X23703   5.358   8.961   4.817  1.1426  0.3364 -2.7604
  172DOPC   H7Y23704   5.227   9.085   4.853  0.8390  2.2829  1.6220
  172DOPC   C3823705   5.327   9.100   4.657  0.5831  0.2426  0.1430
  172DOPC   H8X23706   5.430   9.092   4.618 -0.3770  0.9854 -2.8065
  172DOPC   H8Y23707   5.294   9.206   4.656 -0.5494  0.0146  3.0461
  172DOPC   C3923708   5.238   9.016   4.562 -0.8360 -0.0108 -0.0194
  172DOPC   H9X23709   5.246   8.907   4.580 -0.9211  0.2845  2.0091
  172DOPC  C31023710   5.145   9.059   4.481  0.1377 -0.0447  0.3661
  172DOPC  H10X23711   5.094   8.989   4.414 -0.6185  0.0031  0.8785
  172DOPC  C31123712   5.112   9.204   4.454  0.0507  0.1557  0.7729
  172DOPC  H11X23713   5.188   9.264   4.507  1.8417 -0.3733 -1.0883
  172DOPC  H11Y23714   5.007   9.227   4.485 -0.7558 -0.6151 -1.1884
  172DOPC  C31223715   5.107   9.233   4.303 -0.4063 -0.1587  0.1093
  172DOPC  H12X23716   5.158   9.157   4.241 -1.3365  0.9515 -2.1310
  172DOPC  H12Y23717   5.170   9.323   4.281 -1.0679  0.0274 -1.1242
  172DOPC  C31323718   4.964   9.252   4.248  0.2564  0.4842 -0.7497
  172DOPC  H13X23719   4.966   9.225   4.140  0.5891 -1.3884 -0.3052
  172DOPC  H13Y23720   4.899   9.170   4.285  0.6914 -0.7118 -2.5368
  172DOPC  C31423721   4.895   9.387   4.267  0.3135 -0.4038  0.0844
  172DOPC  H14X23722   4.920   9.433   4.365 -1.2000 -2.1410  1.3684
  172DOPC  H14Y23723   4.938   9.462   4.197  0.3338  0.7648  1.3090
  172DOPC  C31523724   4.739   9.385   4.253  0.0628 -0.8550 -0.3790
  172DOPC  H15X23725   4.702   9.489   4.263  0.9610 -0.3225 -2.1069
  172DOPC  H15Y23726   4.699   9.318   4.332 -1.7803  0.7971  0.1712
  172DOPC  C31623727   4.677   9.345   4.118 -0.0326 -0.0080  0.2795
  172DOPC  H16X23728   4.709   9.240   4.098 -0.8704  0.1748 -2.4867
  172DOPC  H16Y23729   4.569   9.350   4.140  0.1038 -2.0597  1.6564
  172DOPC  C31723730   4.740   9.420   3.993  0.7710  0.8614  0.4861
  172DOPC  H17X23731   4.722   9.526   4.022  0.6127  0.9043  0.2319
  172DOPC  H17Y23732   4.848   9.398   3.999  0.3169 -2.3506 -0.9853
  172DOPC  C31823733   4.688   9.385   3.860  0.1034  0.0353 -0.0778
  172DOPC  H18X23734   4.738   9.443   3.779  0.2661 -0.7716 -0.5686
  172DOPC  H18Y23735   4.701   9.278   3.832 -0.2759  0.0484 -0.3089
  172DOPC  H18Z23736   4.581   9.410   3.847  0.0785  0.6645  1.2609
  173DOPC     N23737   3.714  11.241   6.484 -0.1179 -0.1998  0.2025
  173DOPC   C1223738   3.656  11.351   6.570 -0.1054  0.5096 -0.6113
  173DOPC  H12A23739   3.724  11.435   6.564 -0.7528  0.9878 -1.4392
  173DOPC  H12B23740   3.650  11.325   6.675  0.7954  1.6003 -0.2683
  173DOPC   C1323741   3.625  11.126   6.481 -0.2134 -0.1008 -0.2401
  173DOPC  H13A23742   3.615  11.077   6.577  1.1455  1.5443  0.7986
  173DOPC  H13B23743   3.533  11.144   6.428  0.1762  0.6375 -0.6835
  173DOPC  H13C23744   3.674  11.054   6.416 -1.2132  0.2200 -1.3715
  173DOPC   C1423745   3.853  11.195   6.536 -0.1122 -0.2317 -0.1533
  173DOPC  H14A23746   3.919  11.280   6.532 -0.2406 -0.1140  0.1781
  173DOPC  H14B23747   3.841  11.178   6.642  0.1442 -0.9520 -0.2397
  173DOPC  H14C23748   3.899  11.110   6.488  1.1324  0.1271  0.3553
  173DOPC   C1523749   3.731  11.288   6.345  0.1467  0.4042 -0.3072
  173DOPC  H15A23750   3.818  11.345   6.319  0.8500 -0.6495 -0.3091
  173DOPC  H15B23751   3.647  11.350   6.317  0.7073  1.7466  0.9164
  173DOPC  H15C23752   3.741  11.198   6.285  1.2187 -0.6146  1.3164
  173DOPC   C1123753   3.513  11.394   6.545 -0.2307  0.0533  0.1092
  173DOPC  H11A23754   3.446  11.308   6.564  1.0577 -1.2348 -0.8949
  173DOPC  H11B23755   3.485  11.469   6.622 -0.7809 -0.3569  0.3134
  173DOPC     P23756   3.349  11.491   6.360  0.3079  0.3267  0.3477
  173DOPC   O1323757   3.296  11.618   6.422 -0.5289 -0.0922  0.2309
  173DOPC   O1423758   3.255  11.372   6.359 -0.2639 -0.2347  0.3750
  173DOPC   O1223759   3.496  11.445   6.417 -0.2424 -0.0118  0.4713
  173DOPC   O1123760   3.376  11.505   6.211 -0.4107  0.4561 -0.4949
  173DOPC    C123761   3.500  11.481   6.148 -0.5603  0.5179  0.2976
  173DOPC    HA23762   3.544  11.380   6.161  0.2595  0.8597  0.2291
  173DOPC    HB23763   3.576  11.555   6.181 -1.1248  2.0459 -1.6444
  173DOPC    C223764   3.479  11.501   5.998 -0.0469 -0.1606  0.4376
  173DOPC    HS23765   3.462  11.609   5.974 -0.8309  0.1283  2.1266
  173DOPC   O2123766   3.372  11.417   5.957  0.8654 -0.3614  0.0196
  173DOPC   C2123767   3.258  11.466   5.921 -0.0884 -0.1222  0.3002
  173DOPC   O2223768   3.227  11.586   5.925  0.4814 -0.4403  0.5524
  173DOPC   C2223769   3.179  11.338   5.860  0.1686 -0.0267 -0.2671
  173DOPC   H2R23770   3.157  11.260   5.935  1.8211 -2.4176 -2.1143
  173DOPC   H2S23771   3.251  11.292   5.789 -0.9088 -0.2981 -1.2252
  173DOPC    C323772   3.598  11.460   5.920  0.0632 -0.0503  0.2054
  173DOPC    HX23773   3.607  11.349   5.930  0.4589  0.0291  0.7903
  173DOPC    HY23774   3.687  11.525   5.935 -0.4625  1.0420 -1.2487
  173DOPC   O3123775   3.558  11.483   5.784 -0.1415  0.1850 -0.0076
  173DOPC   C3123776   3.566  11.388   5.687  0.2779  0.6230 -0.5952
  173DOPC   O3223777   3.601  11.274   5.705 -0.1160  0.2487 -0.0496
  173DOPC   C3223778   3.542  11.445   5.544 -0.7282 -0.3307 -0.0097
  173DOPC   H2X23779   3.623  11.514   5.514  0.0199 -2.4219 -3.5163
  173DOPC   H2Y23780   3.560  11.351   5.487  0.2422  0.1974 -0.6038
  173DOPC   C2323781   3.051  11.373   5.782 -0.1648 -1.0031  0.5302
  173DOPC   H3R23782   3.056  11.473   5.734  0.0501 -0.9794  0.6015
  173DOPC   H3S23783   2.979  11.386   5.866  0.4940 -0.5933  1.0406
  173DOPC   C2423784   3.000  11.272   5.675  0.6222  0.1635  0.1642
  173DOPC   H4R23785   2.889  11.280   5.666  0.4978 -1.3077  0.2337
  173DOPC   H4S23786   3.012  11.173   5.724 -0.7381  0.8245  1.9812
  173DOPC   C2523787   3.077  11.286   5.545  0.5059  0.4348 -0.5132
  173DOPC   H5R23788   3.186  11.296   5.566  0.4085 -0.1430  0.3213
  173DOPC   H5S23789   3.047  11.386   5.507 -0.0998 -0.2409 -1.8891
  173DOPC   C2623790   3.063  11.163   5.447 -0.2705 -0.0090 -0.5153
  173DOPC   H6R23791   3.082  11.072   5.508  1.9728  1.6525  1.4254
  173DOPC   H6S23792   3.143  11.177   5.370  0.1023  1.9951  0.1756
  173DOPC   C2723793   2.924  11.169   5.378 -0.0765  0.0405  0.1593
  173DOPC   H7R23794   2.845  11.209   5.445 -1.5627  1.1680 -2.1431
  173DOPC   H7S23795   2.896  11.070   5.337  0.8638  0.6935 -2.2287
  173DOPC   C2823796   2.941  11.253   5.243 -0.2172 -0.1144  0.0237
  173DOPC   H8R23797   3.022  11.196   5.193  0.9432 -1.0255  2.7358
  173DOPC   H8S23798   2.984  11.351   5.273 -2.3155  0.9121 -0.1689
  173DOPC   C2923799   2.812  11.288   5.175  0.3203  0.2752  0.0288
  173DOPC   H9R23800   2.769  11.192   5.141  0.8288  0.0128  0.1094
  173DOPC  C21023801   2.745  11.403   5.164  0.4904  0.1595  0.6267
  173DOPC  H10R23802   2.648  11.416   5.114  0.1609 -0.0083  1.2080
  173DOPC  C21123803   2.797  11.540   5.206 -1.0746  0.8898  0.5980
  173DOPC  H11R23804   2.801  11.608   5.118 -1.2987  0.8047  0.5211
  173DOPC  H11S23805   2.893  11.548   5.261 -1.6910  1.1977  1.6682
  173DOPC  C21223806   2.706  11.605   5.315  0.2277  0.0893 -0.0883
  173DOPC  H12R23807   2.761  11.692   5.355  0.8764 -0.2707 -0.1879
  173DOPC  H12S23808   2.694  11.536   5.402  1.4461 -0.2711 -0.1928
  173DOPC  C21323809   2.574  11.658   5.252  0.7506  0.2912 -0.1960
  173DOPC  H13R23810   2.493  11.582   5.256  0.2215  0.8472 -0.0902
  173DOPC  H13S23811   2.596  11.691   5.149 -0.7523 -1.0460 -0.9769
  173DOPC  C21423812   2.511  11.772   5.336 -0.1569  0.1383  0.0621
  173DOPC  H14R23813   2.599  11.823   5.380 -0.2728  0.0491  0.3977
  173DOPC  H14S23814   2.468  11.731   5.430  0.0458  1.2550  0.6614
  173DOPC  C21523815   2.431  11.876   5.261  0.0359 -0.6171 -0.1280
  173DOPC  H15R23816   2.327  11.845   5.238 -0.0241 -0.5348  0.0318
  173DOPC  H15S23817   2.479  11.891   5.162  2.5351 -1.3971  0.8896
  173DOPC  C21623818   2.454  12.017   5.319 -0.5101 -0.7648 -0.2487
  173DOPC  H16R23819   2.561  12.036   5.343 -0.7470 -2.0965  2.2668
  173DOPC  H16S23820   2.403  12.021   5.418  1.9739  0.8741  1.0633
  173DOPC  C21723821   2.392  12.130   5.239 -0.3753 -0.7537 -0.0887
  173DOPC  H17R23822   2.301  12.087   5.190  0.3426 -3.8590  1.0929
  173DOPC  H17S23823   2.455  12.148   5.149 -1.0396  0.0713 -0.4026
  173DOPC  C21823824   2.353  12.256   5.314  0.4305 -0.5189 -0.2862
  173DOPC  H18R23825   2.444  12.304   5.356  1.1785 -0.9188 -1.3973
  173DOPC  H18S23826   2.271  12.233   5.385 -0.0828  0.3180 -0.5919
  173DOPC  H18T23827   2.306  12.331   5.247  1.2981 -0.4274 -0.8118
  173DOPC   C3323828   3.397  11.505   5.519  0.3485  0.3789 -0.4710
  173DOPC   H3X23829   3.391  11.592   5.588 -0.9122  0.1079 -0.2335
  173DOPC   H3Y23830   3.321  11.433   5.554  2.1148 -2.2000 -1.5740
  173DOPC   C3423831   3.386  11.542   5.374 -0.0037 -0.1621  0.7872
  173DOPC   H4X23832   3.393  11.456   5.305 -0.3566 -0.0833  0.6533
  173DOPC   H4Y23833   3.467  11.615   5.352 -1.1513  1.1908  0.9023
  173DOPC   C3523834   3.265  11.627   5.346  0.2683 -0.6460  0.0099
  173DOPC   H5X23835   3.279  11.720   5.406 -0.5927  0.3681 -1.3037
  173DOPC   H5Y23836   3.168  11.583   5.374 -0.9401  2.0242  0.3616
  173DOPC   C3623837   3.265  11.672   5.197  0.1239 -0.2787  0.1763
  173DOPC   H6X23838   3.269  11.577   5.141  0.7656 -0.3904  0.3964
  173DOPC   H6Y23839   3.163  11.717   5.195  1.0891  2.1155  0.7596
  173DOPC   C3723840   3.371  11.784   5.162  0.7770 -0.6736  0.1347
  173DOPC   H7X23841   3.372  11.862   5.240 -0.5611  1.0725 -1.5090
  173DOPC   H7Y23842   3.474  11.741   5.156  0.0869 -2.2922 -0.9441
  173DOPC   C3823843   3.326  11.853   5.024  0.0581 -1.2025  1.1820
  173DOPC   H8X23844   3.397  11.936   5.003 -2.4797  1.2225  1.5719
  173DOPC   H8Y23845   3.245  11.919   5.061  1.8988  0.8748  1.6946
  173DOPC   C3923846   3.298  11.757   4.909  0.7758  0.2828  0.0381
  173DOPC   H9X23847   3.192  11.739   4.891  0.8544 -0.1717  0.0370
  173DOPC  C31023848   3.394  11.713   4.823  0.3147  0.0156 -0.4197
  173DOPC  H10X23849   3.365  11.667   4.727  0.4816 -2.0743  0.4923
  173DOPC  C31123850   3.543  11.727   4.834  0.4297  0.6169 -0.7369
  173DOPC  H11X23851   3.566  11.789   4.924  0.3450 -0.8833  0.3580
  173DOPC  H11Y23852   3.592  11.765   4.742  1.0706 -2.6321 -1.8521
  173DOPC  C31223853   3.613  11.587   4.862  0.1176 -0.2236 -0.2031
  173DOPC  H12X23854   3.592  11.518   4.778 -0.2100  0.4229 -0.6717
  173DOPC  H12Y23855   3.566  11.536   4.948 -1.0221  2.5016  0.9201
  173DOPC  C31323856   3.760  11.597   4.866 -0.2484  0.5508 -0.0022
  173DOPC  H13X23857   3.803  11.612   4.765 -0.0478 -1.1456 -0.2034
  173DOPC  H13Y23858   3.810  11.665   4.938  0.3691 -1.2284  1.3469
  173DOPC  C31423859   3.819  11.462   4.914 -0.2947  0.7731 -0.9369
  173DOPC  H14X23860   3.928  11.485   4.911  0.2850 -1.4802  0.3930
  173DOPC  H14Y23861   3.803  11.439   5.021 -0.8813  2.7576 -0.5637
  173DOPC  C31523862   3.801  11.342   4.823  0.3897 -0.2159 -0.4381
  173DOPC  H15X23863   3.846  11.361   4.724  1.9133 -0.0279  0.2595
  173DOPC  H15Y23864   3.694  11.315   4.809 -1.1595  3.6907  2.0655
  173DOPC  C31623865   3.873  11.226   4.895  0.5048  0.6511  0.5445
  173DOPC  H16X23866   3.895  11.150   4.818 -0.1107  0.0668  0.9376
  173DOPC  H16Y23867   3.964  11.256   4.952  1.1919 -1.1200  0.4316
  173DOPC  C31723868   3.790  11.163   5.002  0.2641  0.4999  0.0286
  173DOPC  H17X23869   3.730  11.236   5.060 -3.0693 -1.8232 -0.2197
  173DOPC  H17Y23870   3.713  11.095   4.960  0.0570  0.4904  0.4211
  173DOPC  C31823871   3.879  11.074   5.095 -0.3847  0.8256  0.1493
  173DOPC  H18X23872   3.830  11.036   5.187  1.5224  0.7389  1.1795
  173DOPC  H18Y23873   3.965  11.128   5.139 -1.1827  2.0405  0.2893
  173DOPC  H18Z23874   3.911  10.980   5.045 -2.8145 -0.3163  0.6029
  174DOPC     N23875  10.624   2.340   6.709 -0.4934 -0.4260  0.3902
  174DOPC   C1223876  10.701   2.397   6.592  0.0480 -0.9714 -0.2220
  174DOPC  H12A23877  10.804   2.425   6.609 -0.6556  2.6776 -0.9626
  174DOPC  H12B23878  10.652   2.483   6.548  0.7539 -1.6681 -2.5161
  174DOPC   C1323879  10.498   2.265   6.668  0.4030  0.8726 -0.0048
  174DOPC  H13A23880  10.534   2.178   6.614  3.0366  1.1253  1.1726
  174DOPC  H13B23881  10.448   2.232   6.758 -0.2197  1.3106 -0.1855
  174DOPC  H13C23882  10.435   2.316   6.597 -0.6495 -1.0099 -0.5080
  174DOPC   C1423883  10.580   2.454   6.795 -0.1811  0.1154 -0.2063
  174DOPC  H14A23884  10.670   2.497   6.836  1.0846 -2.3500 -0.1840
  174DOPC  H14B23885  10.514   2.530   6.756 -0.2282  0.4559  0.5104
  174DOPC  H14C23886  10.533   2.423   6.887  0.8754  2.1412  1.0973
  174DOPC   C1523887  10.704   2.265   6.804  0.3350  0.2249 -0.2350
  174DOPC  H15A23888  10.754   2.189   6.745 -0.5998 -0.8354  0.3004
  174DOPC  H15B23889  10.633   2.222   6.873  2.6662 -1.1915  1.4183
  174DOPC  H15C23890  10.773   2.325   6.861  1.9693 -1.3723 -0.4443
  174DOPC   C1123891  10.722   2.310   6.463 -0.0425  0.6886 -0.3603
  174DOPC  H11A23892  10.621   2.277   6.432 -0.5893  1.1033  0.9075
  174DOPC  H11B23893  10.758   2.383   6.387 -0.5748  4.4742  2.6594
  174DOPC     P23894  10.772   2.050   6.469  0.2348 -0.0075  0.2309
  174DOPC   O1323895  10.640   2.036   6.533 -0.3724  0.6209  0.0481
  174DOPC   O1423896  10.871   1.965   6.536 -0.1613 -0.2533  0.0291
  174DOPC   O1223897  10.813   2.202   6.487  0.4883  0.3549 -0.1657
  174DOPC   O1123898  10.757   2.018   6.317  0.4230  0.0170  0.3441
  174DOPC    C123899  10.869   2.033   6.227 -0.0619 -0.5441  0.2294
  174DOPC    HA23900  10.963   1.998   6.276  0.1117 -1.3891 -0.6818
  174DOPC    HB23901  10.885   2.141   6.208  1.7007 -0.8307 -0.0300
  174DOPC    C223902  10.871   1.946   6.100  0.2509 -0.5899 -0.0723
  174DOPC    HS23903  10.792   1.996   6.039  0.5685 -0.7434 -0.6073
  174DOPC   O2123904  10.857   1.800   6.130  0.4616 -0.3059  0.3411
  174DOPC   C2123905  10.727   1.774   6.136  0.1326 -0.1546 -0.2174
  174DOPC   O2223906  10.632   1.846   6.106  0.7203  0.1880  0.1652
  174DOPC   C2223907  10.712   1.635   6.180  0.0601  0.1351 -0.4028
  174DOPC   H2R23908  10.657   1.623   6.276 -0.4452  1.1041 -0.5659
  174DOPC   H2S23909  10.812   1.597   6.209  0.3956  2.4868  1.8900
  174DOPC    C323910  11.005   1.975   6.021 -0.9368  0.3613  0.2069
  174DOPC    HX23911  11.089   1.925   6.075  2.0070  1.6467 -2.7753
  174DOPC    HY23912  11.026   2.084   6.021 -1.0120  0.3981 -1.4732
  174DOPC   O3123913  10.993   1.937   5.879 -0.4232 -0.6548  0.3672
  174DOPC   C3123914  11.013   1.810   5.844 -0.4325 -0.7431 -0.1924
  174DOPC   O3223915  11.029   1.712   5.918  0.3323 -0.5137  0.2688
  174DOPC   C3223916  11.011   1.800   5.689 -0.2544 -0.0075  0.2487
  174DOPC   H2X23917  10.946   1.882   5.650 -2.8275 -1.3833  1.3544
  174DOPC   H2Y23918  11.112   1.813   5.646 -0.4984 -0.9744 -0.6675
  174DOPC   C2323919  10.653   1.551   6.064 -0.0169  0.1404  1.2358
  174DOPC   H3R23920  10.564   1.597   6.017  1.3324  2.3491  0.6679
  174DOPC   H3S23921  10.624   1.452   6.103 -0.9445 -1.6512 -3.3928
  174DOPC   C2423922  10.759   1.514   5.961 -0.7069  0.8679 -0.1379
  174DOPC   H4R23923  10.851   1.476   6.010  1.5047  1.3960 -3.5369
  174DOPC   H4S23924  10.805   1.603   5.911 -0.5396  1.9187  1.8058
  174DOPC   C2523925  10.723   1.390   5.874 -0.0218  0.1183 -0.0789
  174DOPC   H5R23926  10.665   1.323   5.941 -1.9957  1.2562 -0.5653
  174DOPC   H5S23927  10.819   1.348   5.839  0.5938  1.6758 -0.3345
  174DOPC   C2623928  10.641   1.417   5.746 -0.3414  0.0187  0.1998
  174DOPC   H6R23929  10.701   1.482   5.678 -1.0729  1.3745  0.8239
  174DOPC   H6S23930  10.549   1.466   5.783 -0.8713 -1.3983  0.8029
  174DOPC   C2723931  10.616   1.279   5.671 -0.1891 -0.0979  0.2736
  174DOPC   H7R23932  10.587   1.212   5.755  1.0478  0.4101  1.1487
  174DOPC   H7S23933  10.712   1.229   5.646  0.5823  1.1961  0.5123
  174DOPC   C2823934  10.505   1.285   5.562 -0.6121  0.1666 -0.1059
  174DOPC   H8R23935  10.415   1.296   5.625  0.1721  0.5346  0.9865
  174DOPC   H8S23936  10.488   1.186   5.515 -0.6403  1.4348 -2.9918
  174DOPC   C2923937  10.509   1.398   5.452  0.2654 -0.7125  0.2759
  174DOPC   H9R23938  10.484   1.498   5.490 -1.9468  0.1061 -2.9023
  174DOPC  C21023939  10.536   1.380   5.324  0.0119  0.2421 -0.2084
  174DOPC  H10R23940  10.547   1.468   5.258 -0.9350  0.2115 -0.4283
  174DOPC  C21123941  10.564   1.249   5.250  0.8400 -0.3561 -0.3377
  174DOPC  H11R23942  10.596   1.181   5.333 -2.1500 -0.4784  0.8403
  174DOPC  H11S23943  10.649   1.267   5.180 -0.5511  0.6561 -1.8376
  174DOPC  C21223944  10.458   1.183   5.167  0.0910  0.1388  0.6431
  174DOPC  H12R23945  10.369   1.160   5.229  0.2307  2.2667  1.7419
  174DOPC  H12S23946  10.506   1.090   5.130  3.2477  2.6618 -2.3791
  174DOPC  C21323947  10.421   1.265   5.044  0.8404 -0.0640 -0.4442
  174DOPC  H13R23948  10.507   1.282   4.975  0.6866 -0.7988 -0.8344
  174DOPC  H13S23949  10.372   1.362   5.064  0.0410 -0.7611  1.1229
  174DOPC  C21423950  10.326   1.192   4.950  0.4010  0.1691 -0.0267
  174DOPC  H14R23951  10.223   1.169   4.985 -0.0810  1.5322 -0.4991
  174DOPC  H14S23952  10.367   1.092   4.922  0.0797  0.2074 -0.6535
  174DOPC  C21523953  10.318   1.263   4.811  0.3634 -0.2992 -0.2817
  174DOPC  H15R23954  10.420   1.293   4.779  1.4957 -0.8755  2.5230
  174DOPC  H15S23955  10.255   1.354   4.821  2.0447  0.9321 -0.4165
  174DOPC  C21623956  10.266   1.175   4.697  0.3371  0.3874 -0.6325
  174DOPC  H16R23957  10.157   1.152   4.708  0.7753 -1.4582  0.3255
  174DOPC  H16S23958  10.312   1.074   4.701  1.2481  0.7470 -1.6452
  174DOPC  C21723959  10.276   1.234   4.557  0.2472 -1.0958 -0.3560
  174DOPC  H17R23960  10.372   1.192   4.519 -0.4322 -2.9594 -0.1202
  174DOPC  H17S23961  10.293   1.343   4.567 -0.2637 -0.8064 -2.1931
  174DOPC  C21823962  10.162   1.211   4.458  0.0654  0.3178 -0.5867
  174DOPC  H18R23963  10.062   1.238   4.500 -1.3397 -0.0883 -3.4186
  174DOPC  H18S23964  10.158   1.110   4.410 -1.6177 -0.2424  0.6115
  174DOPC  H18T23965  10.184   1.282   4.376  0.0465 -0.5626 -1.3794
  174DOPC   C3323966  10.952   1.668   5.647 -0.0491 -0.2017  0.4097
  174DOPC   H3X23967  10.844   1.657   5.672 -0.3994 -0.9789 -1.3351
  174DOPC   H3Y23968  10.996   1.580   5.699 -0.8244 -1.3845 -0.8782
  174DOPC   C3423969  10.976   1.640   5.499  0.2701 -0.3596  0.5323
  174DOPC   H4X23970  11.085   1.630   5.480  0.3428  0.7033  0.3260
  174DOPC   H4Y23971  10.948   1.735   5.449  0.7204 -0.0056  0.9504
  174DOPC   C3523972  10.884   1.540   5.429  0.5038  0.5425 -0.3389
  174DOPC   H5X23973  10.779   1.572   5.443  1.2669  3.1729 -0.1198
  174DOPC   H5Y23974  10.915   1.440   5.468  1.9351  0.2415 -2.1223
  174DOPC   C3623975  10.910   1.532   5.274  0.2361  0.3805 -0.2511
  174DOPC   H6X23976  10.854   1.443   5.238 -0.6383  0.6776  0.3528
  174DOPC   H6Y23977  10.874   1.624   5.223  0.9309  0.1591 -1.1799
  174DOPC   C3723978  11.057   1.524   5.228 -0.2508  0.1250  0.1274
  174DOPC   H7X23979  11.112   1.620   5.244  1.2229 -0.5300 -0.8253
  174DOPC   H7Y23980  11.115   1.448   5.285  1.5644  2.0196  0.9928
  174DOPC   C3823981  11.086   1.490   5.082 -0.6680  0.0589  0.0855
  174DOPC   H8X23982  11.188   1.528   5.061  1.4898 -5.2973 -0.6165
  174DOPC   H8Y23983  11.006   1.528   5.015  0.4737 -0.3679 -1.5816
  174DOPC   C3923984  11.104   1.339   5.068  0.2926 -0.3229  0.7095
  174DOPC   H9X23985  11.170   1.285   5.138 -2.1206 -2.4932  1.4383
  174DOPC  C31023986  11.043   1.253   4.988 -0.2580  0.0583  0.0725
  174DOPC  H10X23987  11.061   1.145   4.994 -1.9453 -0.2345  0.2121
  174DOPC  C31123988  10.947   1.284   4.882 -0.1907  0.5276  0.0576
  174DOPC  H11X23989  10.997   1.272   4.783  1.6941 -0.1803  1.0561
  174DOPC  H11Y23990  10.917   1.391   4.889  0.2419  0.5659  1.6758
  174DOPC  C31223991  10.813   1.211   4.886  0.3087 -0.4494  0.3809
  174DOPC  H12X23992  10.766   1.239   4.983 -0.6603  0.2831 -0.2873
  174DOPC  H12Y23993  10.845   1.105   4.878  1.1429 -0.1107 -1.0821
  174DOPC  C31323994  10.725   1.225   4.763  0.7306 -0.0800 -0.0231
  174DOPC  H13X23995  10.787   1.193   4.676  1.7715  0.3143  0.5591
  174DOPC  H13Y23996  10.648   1.146   4.780 -0.5730  1.0170 -0.6541
  174DOPC  C31423997  10.670   1.360   4.728  0.3543  0.5794 -0.4294
  174DOPC  H14X23998  10.579   1.344   4.666  0.7240  1.2803 -1.1712
  174DOPC  H14Y23999  10.650   1.432   4.811 -0.1177  0.6609 -0.6098
  174DOPC  C31524000  10.767   1.434   4.640 -0.5138  0.5444  0.2423
  174DOPC  H15X24001  10.789   1.361   4.559 -1.4568 -1.8651  2.0299
  174DOPC  H15Y24002  10.860   1.459   4.695 -0.0052 -1.4225  0.3520
  174DOPC  C31624003  10.708   1.563   4.568  0.3945  0.8429 -0.1739
  174DOPC  H16X24004  10.600   1.556   4.543  0.6053 -0.7985 -0.7623
  174DOPC  H16Y24005  10.716   1.646   4.641  0.5107  0.4894  0.2224
  174DOPC  C31724006  10.783   1.597   4.432  0.6192 -0.0816 -0.1040
  174DOPC  H17X24007  10.784   1.510   4.363  0.5340  1.5010 -2.1985
  174DOPC  H17Y24008  10.730   1.683   4.385  2.1022  1.4913  0.9499
  174DOPC  C31824009  10.932   1.627   4.454  0.9476 -0.7755  0.2532
  174DOPC  H18X24010  10.945   1.693   4.542 -0.1683 -0.3345  0.1111
  174DOPC  H18Y24011  10.989   1.534   4.475  0.6136 -1.0588 -0.0738
  174DOPC  H18Z24012  10.973   1.675   4.362 -1.9435 -1.4698 -1.5402
  175DOPC     N24013   0.708   1.551   6.355 -0.5400 -0.3687 -0.5470
  175DOPC   C1224014   0.662   1.496   6.216  0.0850  0.6352 -0.9519
  175DOPC  H12A24015   0.745   1.448   6.167 -1.4009 -1.4402 -1.5737
  175DOPC  H12B24016   0.626   1.572   6.149 -1.0234  0.6107 -0.4120
  175DOPC   C1324017   0.794   1.464   6.436  0.2173 -0.1769  0.2622
  175DOPC  H13A24018   0.866   1.409   6.378 -0.7833 -1.0103 -0.2250
  175DOPC  H13B24019   0.850   1.521   6.509 -1.5446 -0.5677  1.9982
  175DOPC  H13C24020   0.736   1.388   6.485 -1.6044  2.3526  2.3625
  175DOPC   C1424021   0.597   1.601   6.440 -0.4273 -0.4694 -0.3547
  175DOPC  H14A24022   0.645   1.647   6.525  0.3254  1.3543 -1.7109
  175DOPC  H14B24023   0.540   1.673   6.383  0.2789 -0.7401 -1.4315
  175DOPC  H14C24024   0.527   1.535   6.489 -0.9449 -1.0114 -1.7869
  175DOPC   C1524025   0.784   1.674   6.323 -0.1415 -0.1464 -0.3007
  175DOPC  H15A24026   0.720   1.747   6.276  0.6261  1.0975  0.5201
  175DOPC  H15B24027   0.869   1.656   6.259 -1.4438 -2.6507 -1.4487
  175DOPC  H15C24028   0.805   1.728   6.415 -2.8404  1.3011 -0.4401
  175DOPC   C1124029   0.557   1.375   6.218  0.4555 -0.2034  0.2157
  175DOPC  H11A24030   0.475   1.403   6.288 -0.5821 -0.7843 -0.7251
  175DOPC  H11B24031   0.514   1.358   6.117  1.9806  1.0130 -0.6756
  175DOPC     P24032   0.743   1.196   6.185  0.3502 -0.3544 -0.0148
  175DOPC   O1324033   0.756   1.058   6.222  0.1746  0.2161 -0.0312
  175DOPC   O1424034   0.858   1.283   6.220  0.2784 -0.5352  0.5644
  175DOPC   O1224035   0.626   1.260   6.264 -0.0340 -0.7497 -0.0590
  175DOPC   O1124036   0.700   1.209   6.031  0.1122  0.0003  0.1938
  175DOPC    C124037   0.781   1.306   5.947  0.9778  0.0204  0.3130
  175DOPC    HA24038   0.890   1.283   5.950  0.9222 -0.2455  0.3791
  175DOPC    HB24039   0.773   1.409   5.986 -2.0006  0.4707 -1.2626
  175DOPC    C224040   0.728   1.310   5.797  0.7390 -0.4477 -0.2074
  175DOPC    HS24041   0.628   1.359   5.806  0.5329 -0.1558 -3.2620
  175DOPC   O2124042   0.734   1.176   5.741  0.4577 -0.7236  0.1497
  175DOPC   C2124043   0.642   1.161   5.644  0.0618  0.3323 -0.0024
  175DOPC   O2224044   0.561   1.248   5.608  0.1594 -0.2296 -0.0814
  175DOPC   C2224045   0.671   1.026   5.575  0.6890 -0.1279  0.3020
  175DOPC   H2R24046   0.658   0.948   5.653  0.9530  1.0633  1.5716
  175DOPC   H2S24047   0.780   1.026   5.552  0.8827  1.1521  1.0979
  175DOPC    C324048   0.813   1.411   5.714  0.4651  0.1532 -0.3474
  175DOPC    HX24049   0.912   1.363   5.702 -0.0633 -0.4913 -2.4071
  175DOPC    HY24050   0.832   1.503   5.775 -0.8740  0.5826 -0.5558
  175DOPC   O3124051   0.754   1.464   5.592  0.1390 -0.0576  0.0841
  175DOPC   C3124052   0.823   1.451   5.483  0.2265 -0.5086  0.0293
  175DOPC   O3224053   0.935   1.401   5.470  0.4577  0.4263 -0.0415
  175DOPC   C3224054   0.731   1.489   5.359 -0.3893 -0.2781 -0.2548
  175DOPC   H2X24055   0.630   1.456   5.390 -1.4746  2.0225 -1.0976
  175DOPC   H2Y24056   0.716   1.599   5.361 -0.5066 -0.2963 -0.1110
  175DOPC   C2324057   0.576   0.995   5.461 -0.0365 -0.0338  0.1452
  175DOPC   H3R24058   0.472   1.024   5.487  0.1420  0.3356  0.4570
  175DOPC   H3S24059   0.568   0.885   5.445 -1.0569 -0.0822  0.8497
  175DOPC   C2424060   0.631   1.042   5.326  0.3251 -0.1370  0.6417
  175DOPC   H4R24061   0.724   0.988   5.300  0.1215  0.2859 -1.0926
  175DOPC   H4S24062   0.661   1.148   5.342 -0.9207 -0.0404  2.6664
  175DOPC   C2524063   0.529   1.010   5.211  0.1486 -0.1155  0.2285
  175DOPC   H5R24064   0.435   1.068   5.227 -0.0510 -0.4510  0.2939
  175DOPC   H5S24065   0.492   0.905   5.214 -0.7036  0.1857  0.6205
  175DOPC   C2624066   0.580   1.021   5.061  0.1258 -0.4680 -0.8226
  175DOPC   H6R24067   0.675   0.964   5.053  1.4897  1.6126 -0.2033
  175DOPC   H6S24068   0.611   1.128   5.060 -1.0488 -0.0762  0.5653
  175DOPC   C2724069   0.466   0.997   4.964  0.4084 -0.4191 -0.3154
  175DOPC   H7R24070   0.378   1.058   4.993  1.8191  1.9295 -0.7098
  175DOPC   H7S24071   0.433   0.892   4.980 -0.3877 -0.0093  0.8321
  175DOPC   C2824072   0.511   1.036   4.823  0.1296  0.4156  0.4097
  175DOPC   H8R24073   0.591   0.965   4.793  0.7390  0.5021  1.7305
  175DOPC   H8S24074   0.553   1.139   4.832 -0.5528  0.6102  1.5359
  175DOPC   C2924075   0.398   1.038   4.726  0.2566 -0.1545  1.3854
  175DOPC   H9R24076   0.305   1.079   4.768  0.2975  1.9299 -0.3736
  175DOPC  C21024077   0.402   0.985   4.602  0.1147 -0.4006  0.3544
  175DOPC  H10R24078   0.312   0.980   4.539  0.0254  0.1504  0.4378
  175DOPC  C21124079   0.519   0.906   4.544  0.9970  0.7926 -0.1397
  175DOPC  H11R24080   0.487   0.832   4.469 -1.4145  1.3843  0.2353
  175DOPC  H11S24081   0.560   0.836   4.620 -1.7332  1.6626  2.3057
  175DOPC  C21224082   0.622   1.001   4.486  0.4052 -0.0741 -0.0706
  175DOPC  H12R24083   0.714   0.946   4.455  0.7307  0.4694 -0.0957
  175DOPC  H12S24084   0.647   1.078   4.563  1.2975 -1.0054  0.5973
  175DOPC  C21324085   0.566   1.072   4.354  0.5599  0.4690  0.1950
  175DOPC  H13R24086   0.657   1.110   4.302  0.6943 -0.4445 -0.2636
  175DOPC  H13S24087   0.497   1.150   4.393 -0.5712 -1.2108  1.7139
  175DOPC  C21424088   0.492   0.989   4.244  0.4017 -0.7568 -0.4672
  175DOPC  H14R24089   0.450   1.057   4.166  1.6755  1.6890  0.8480
  175DOPC  H14S24090   0.410   0.940   4.299  0.3539  0.3518  0.4760
  175DOPC  C21524091   0.590   0.884   4.186  0.6179  0.1778  0.3116
  175DOPC  H15R24092   0.627   0.811   4.261  2.9503  0.3211 -0.6265
  175DOPC  H15S24093   0.679   0.936   4.147  0.4833  0.0923 -0.1122
  175DOPC  C21624094   0.526   0.803   4.072  0.3584  0.7983  0.2749
  175DOPC  H16R24095   0.522   0.878   3.991 -1.9239  1.1727  0.6715
  175DOPC  H16S24096   0.417   0.783   4.087  0.1302  0.4681 -1.5113
  175DOPC  C21724097   0.614   0.682   4.027 -0.3914  0.4240  0.2467
  175DOPC  H17R24098   0.598   0.599   4.099  1.9484  0.7771  1.2531
  175DOPC  H17S24099   0.718   0.720   4.035 -0.8619  2.2158 -1.3764
  175DOPC  C21824100   0.598   0.632   3.880 -0.3843 -0.7983  0.4817
  175DOPC  H18R24101   0.680   0.559   3.860  0.4108 -0.6663  2.9218
  175DOPC  H18S24102   0.609   0.720   3.814 -0.1267 -2.0511 -1.2095
  175DOPC  H18T24103   0.497   0.587   3.876 -0.5086 -0.6502  1.5528
  175DOPC   C3324104   0.779   1.428   5.227 -0.1028 -0.3114  1.0210
  175DOPC   H3X24105   0.787   1.318   5.240 -0.9697 -0.6730 -1.0838
  175DOPC   H3Y24106   0.883   1.464   5.209 -0.3535  1.1161  2.2658
  175DOPC   C3424107   0.698   1.463   5.095 -0.0435 -0.2262  0.0166
  175DOPC   H4X24108   0.736   1.390   5.021  0.8546 -0.8084  1.0325
  175DOPC   H4Y24109   0.725   1.563   5.056  0.6403 -0.4658 -0.1286
  175DOPC   C3524110   0.542   1.445   5.114 -0.6703  0.1632  0.4306
  175DOPC   H5X24111   0.518   1.496   5.210 -0.7085 -0.7902  0.9513
  175DOPC   H5Y24112   0.520   1.336   5.114 -0.7052  0.1710 -0.2244
  175DOPC   C3624113   0.465   1.493   4.989 -0.1245 -0.1625 -0.8064
  175DOPC   H6X24114   0.523   1.454   4.902  2.8207  0.1196  0.9253
  175DOPC   H6Y24115   0.370   1.435   4.985 -0.6747  0.7641 -3.0696
  175DOPC   C3724116   0.434   1.639   4.976 -0.2654 -0.0743 -0.4611
  175DOPC   H7X24117   0.410   1.694   5.069  0.7982  0.3208 -0.4018
  175DOPC   H7Y24118   0.521   1.688   4.926 -1.2391 -0.7067 -2.9091
  175DOPC   C3824119   0.312   1.664   4.886  0.5351  0.3043  0.1536
  175DOPC   H8X24120   0.225   1.621   4.939  0.9133  0.5551  0.9943
  175DOPC   H8Y24121   0.328   1.611   4.790 -1.1543  0.5348 -0.2943
  175DOPC   C3924122   0.278   1.805   4.856  0.5220 -0.2373 -0.1705
  175DOPC   H9X24123   0.249   1.866   4.943  0.3820  0.5804 -0.7693
  175DOPC  C31024124   0.286   1.869   4.739 -0.3492 -0.2477 -0.3576
  175DOPC  H10X24125   0.248   1.972   4.737 -1.8987 -0.7970 -2.0546
  175DOPC  C31124126   0.322   1.818   4.597  0.5885 -0.1354 -0.5367
  175DOPC  H11X24127   0.230   1.796   4.538 -0.5053 -0.4584  1.2160
  175DOPC  H11Y24128   0.380   1.724   4.598 -1.9374 -1.7930  0.4414
  175DOPC  C31224129   0.406   1.926   4.521  0.3452  0.3051  0.7010
  175DOPC  H12X24130   0.504   1.930   4.573  0.8348 -1.9741  0.0560
  175DOPC  H12Y24131   0.358   2.026   4.526  1.0961  0.7156 -0.0637
  175DOPC  C31324132   0.428   1.894   4.372 -0.0116  0.0587  0.4772
  175DOPC  H13X24133   0.488   1.800   4.368  1.8487  1.1270  1.5713
  175DOPC  H13Y24134   0.331   1.862   4.328  0.5293 -1.7874  0.5360
  175DOPC  C31424135   0.491   2.011   4.292 -0.1566  0.2377 -0.1835
  175DOPC  H14X24136   0.486   1.984   4.184  0.4985 -1.0824  0.0925
  175DOPC  H14Y24137   0.442   2.109   4.306  0.2843  0.5186 -0.5547
  175DOPC  C31524138   0.634   2.044   4.327 -0.2125 -0.4843  0.1025
  175DOPC  H15X24139   0.698   1.957   4.302  0.9049  0.5347 -0.7411
  175DOPC  H15Y24140   0.645   2.069   4.434 -0.4214  1.8612 -0.3538
  175DOPC  C31624141   0.684   2.171   4.251  0.6519  0.2471  0.2485
  175DOPC  H16X24142   0.663   2.168   4.142  1.0479  0.0362  0.1781
  175DOPC  H16Y24143   0.632   2.260   4.294  1.9006  1.1117  0.0332
  175DOPC  C31724144   0.836   2.192   4.269  1.2015  0.0983 -0.6586
  175DOPC  H17X24145   0.858   2.293   4.228 -0.3595  0.5799 -0.3857
  175DOPC  H17Y24146   0.862   2.193   4.377 -0.4485 -1.2186 -0.2041
  175DOPC  C31824147   0.924   2.086   4.200 -0.0276 -0.2999 -0.5525
  175DOPC  H18X24148   0.879   2.071   4.099 -3.7075  1.6844  0.6231
  175DOPC  H18Y24149   1.030   2.120   4.192  0.4286 -1.4370  0.3469
  175DOPC  H18Z24150   0.922   1.991   4.258  0.2114  1.0956  1.8501
  176DOPC     N24151   8.885   1.246   6.632  0.3512  1.0597 -0.4387
  176DOPC   C1224152   8.844   1.170   6.511 -0.4346 -0.1498  0.0121
  176DOPC  H12A24153   8.804   1.074   6.540 -1.3043  0.4880  0.9896
  176DOPC  H12B24154   8.930   1.133   6.457 -0.5246 -1.5876  0.8063
  176DOPC   C1324155   9.010   1.185   6.688  0.1062  0.3656 -0.2712
  176DOPC  H13A24156   9.022   1.216   6.791 -0.5158 -2.0591  0.5899
  176DOPC  H13B24157   8.989   1.079   6.689 -0.1500  0.3931 -1.5556
  176DOPC  H13C24158   9.097   1.208   6.628 -0.7617  2.7307 -0.7462
  176DOPC   C1424159   8.780   1.237   6.739  0.0058 -0.1605  0.1953
  176DOPC  H14A24160   8.751   1.135   6.757 -0.9165 -0.2014 -1.3792
  176DOPC  H14B24161   8.818   1.275   6.833 -0.5501 -0.2789  0.4670
  176DOPC  H14C24162   8.686   1.279   6.707 -0.3061 -0.5256  0.6249
  176DOPC   C1524163   8.907   1.387   6.591  0.2689 -0.2228  0.3271
  176DOPC  H15A24164   9.003   1.399   6.543 -1.4674  0.5388 -3.2800
  176DOPC  H15B24165   8.914   1.451   6.678  1.4107  1.2637 -0.8175
  176DOPC  H15C24166   8.829   1.432   6.532  1.1752  0.7352 -0.1701
  176DOPC   C1124167   8.736   1.233   6.416 -0.0168  0.5358 -0.3928
  176DOPC  H11A24168   8.770   1.323   6.359  1.0302 -0.0665 -0.7433
  176DOPC  H11B24169   8.729   1.160   6.332  1.3317 -0.1751  0.0806
  176DOPC     P24170   8.510   1.363   6.463 -0.5746  0.0803  0.2231
  176DOPC   O1324171   8.577   1.491   6.435  0.6942 -0.3045 -0.1223
  176DOPC   O1424172   8.407   1.356   6.571 -0.1213  0.2487 -0.3053
  176DOPC   O1224173   8.614   1.252   6.488 -0.3475  0.2659  0.1269
  176DOPC   O1124174   8.431   1.310   6.341  0.1577  0.1348  0.1105
  176DOPC    C124175   8.341   1.394   6.274  0.4722 -0.1416 -0.2268
  176DOPC    HA24176   8.357   1.504   6.284 -3.0001  0.3332  1.7023
  176DOPC    HB24177   8.235   1.375   6.301  0.6696 -1.3786 -0.2748
  176DOPC    C224178   8.346   1.361   6.122  0.1216  0.2251 -0.2254
  176DOPC    HS24179   8.264   1.410   6.064  0.5560  0.7233 -0.4228
  176DOPC   O2124180   8.345   1.218   6.098 -0.9115  0.6357  0.6201
  176DOPC   C2124181   8.226   1.166   6.097  0.6968  0.6018  0.0274
  176DOPC   O2224182   8.123   1.230   6.130  0.3227  0.9535  0.0780
  176DOPC   C2224183   8.238   1.021   6.053  0.2766  0.0417  0.2266
  176DOPC   H2R24184   8.231   0.947   6.136 -1.0020  0.6696  0.7104
  176DOPC   H2S24185   8.332   1.013   5.994 -0.9494 -0.8770 -1.6632
  176DOPC    C324186   8.477   1.414   6.057 -0.3463 -0.1159  0.6112
  176DOPC    HX24187   8.563   1.365   6.108 -0.3025  0.8403  1.4869
  176DOPC    HY24188   8.482   1.521   6.088  2.7534  0.2265 -0.6843
  176DOPC   O3124189   8.475   1.410   5.913  0.3067 -0.3944  0.0298
  176DOPC   C3124190   8.576   1.347   5.849 -0.6952 -0.3797  0.1125
  176DOPC   O3224191   8.672   1.297   5.903  0.1443  0.4833  0.0964
  176DOPC   C3224192   8.554   1.370   5.699  0.6296  0.2127 -0.3724
  176DOPC   H2X24193   8.473   1.444   5.684 -0.0673 -0.4768 -0.0533
  176DOPC   H2Y24194   8.654   1.398   5.658  0.2350  1.1746 -0.7065
  176DOPC   C2324195   8.127   0.971   5.947 -0.0157 -0.2438 -0.4247
  176DOPC   H3R24196   8.165   0.882   5.893  1.0758 -0.2960  0.4060
  176DOPC   H3S24197   8.100   1.044   5.867  3.4810  3.0448  1.0707
  176DOPC   C2424198   7.995   0.932   6.017 -0.1840 -0.5196  0.4308
  176DOPC   H4R24199   7.944   1.015   6.072  1.4380  1.3232 -0.7120
  176DOPC   H4S24200   8.013   0.846   6.085  0.2389 -1.1314 -0.4401
  176DOPC   C2524201   7.897   0.879   5.912 -0.1888  0.3311 -0.3265
  176DOPC   H5R24202   7.818   0.814   5.956 -1.0756  1.0469 -0.8207
  176DOPC   H5S24203   7.959   0.825   5.837  1.6956 -0.2378  1.5424
  176DOPC   C2624204   7.819   0.983   5.831 -0.4087 -0.2222  0.1031
  176DOPC   H6R24205   7.889   1.035   5.762 -0.9549  0.6209  0.1704
  176DOPC   H6S24206   7.786   1.062   5.902 -1.4069 -0.1979 -0.3831
  176DOPC   C2724207   7.703   0.917   5.758  0.0746 -0.6091 -0.2540
  176DOPC   H7R24208   7.614   0.979   5.782 -0.5338 -1.2419 -0.8546
  176DOPC   H7S24209   7.670   0.820   5.799 -2.3985  0.1482 -0.3066
  176DOPC   C2824210   7.739   0.909   5.609 -0.8545  0.2953 -0.6484
  176DOPC   H8R24211   7.828   0.843   5.616  0.1247  1.6809  0.9492
  176DOPC   H8S24212   7.771   1.011   5.578  0.4802  0.2089  0.3210
  176DOPC   C2924213   7.625   0.850   5.525  0.4183  0.3117 -0.2312
  176DOPC   H9R24214   7.526   0.844   5.573  0.5672  0.7515  0.1395
  176DOPC  C21024215   7.625   0.788   5.408 -0.0143  0.0206  1.0910
  176DOPC  H10R24216   7.536   0.752   5.356  1.8573 -2.6121 -0.5578
  176DOPC  C21124217   7.755   0.752   5.331  0.1888 -0.3314  0.2284
  176DOPC  H11R24218   7.788   0.646   5.326 -0.6395 -0.5657 -0.6484
  176DOPC  H11S24219   7.837   0.806   5.382 -0.5385  1.1461 -0.1018
  176DOPC  C21224220   7.739   0.805   5.187 -0.7377  0.0529 -0.3555
  176DOPC  H12R24221   7.722   0.915   5.180  2.8201  0.6935 -1.3146
  176DOPC  H12S24222   7.665   0.743   5.134 -1.0915 -0.2428  0.4753
  176DOPC  C21324223   7.870   0.800   5.116  0.0708  0.0300 -0.4509
  176DOPC  H13R24224   7.862   0.783   5.006  0.2716 -1.5153 -0.2476
  176DOPC  H13S24225   7.923   0.706   5.145  0.6560  0.4073 -0.2751
  176DOPC  C21424226   7.968   0.917   5.140 -0.0364 -0.0614 -0.4751
  176DOPC  H14R24227   7.994   0.910   5.248 -0.6017  0.0029 -0.3332
  176DOPC  H14S24228   7.925   1.019   5.126  2.8470  1.1176 -1.5142
  176DOPC  C21524229   8.086   0.906   5.043  0.3665 -1.4339  0.1177
  176DOPC  H15R24230   8.125   0.803   5.040  1.6066 -1.0035  0.6086
  176DOPC  H15S24231   8.177   0.964   5.073  1.1627 -2.2747 -0.5999
  176DOPC  C21624232   8.053   0.948   4.894 -0.3967  0.0688  0.2595
  176DOPC  H16R24233   8.033   1.058   4.896  1.4774  0.4538  0.0077
  176DOPC  H16S24234   7.971   0.883   4.856  0.4875 -1.3207  0.6571
  176DOPC  C21724235   8.178   0.927   4.800 -0.9492 -0.1967  0.6304
  176DOPC  H17R24236   8.199   0.818   4.791 -1.7449 -0.3803  0.9497
  176DOPC  H17S24237   8.254   0.983   4.859 -1.4415  1.3466 -0.1540
  176DOPC  C21824238   8.181   0.994   4.662  0.3115  0.1197  0.4225
  176DOPC  H18R24239   8.282   0.996   4.616 -0.0629 -1.0640 -0.5052
  176DOPC  H18S24240   8.144   1.098   4.678  0.1769  0.2801 -0.8342
  176DOPC  H18T24241   8.119   0.942   4.587 -1.4731 -2.0238  3.1917
  176DOPC   C3324242   8.499   1.242   5.635  0.0156  0.1783  0.4767
  176DOPC   H3X24243   8.561   1.153   5.658 -1.8882 -1.0412  1.0789
  176DOPC   H3Y24244   8.490   1.256   5.525 -0.1259  0.6212  0.5433
  176DOPC   C3424245   8.358   1.203   5.679 -0.4598  0.0431  0.7035
  176DOPC   H4X24246   8.362   1.170   5.785 -0.3453 -0.6336  0.4926
  176DOPC   H4Y24247   8.323   1.122   5.612 -1.0646 -0.5273  1.6950
  176DOPC   C3524248   8.253   1.309   5.667  0.9392 -0.4483 -0.3538
  176DOPC   H5X24249   8.236   1.339   5.561  0.9618  0.7894 -0.0318
  176DOPC   H5Y24250   8.284   1.402   5.721  1.0952 -0.1790 -0.9050
  176DOPC   C3624251   8.110   1.275   5.726 -0.5062  0.6788  0.7351
  176DOPC   H6X24252   8.077   1.177   5.684  0.0760  0.2243  1.3200
  176DOPC   H6Y24253   8.114   1.264   5.836 -1.2903  1.9733  0.9159
  176DOPC   C3724254   8.012   1.393   5.700 -0.1176  0.1650 -0.7176
  176DOPC   H7X24255   7.923   1.391   5.766  0.1113  0.0016 -0.4120
  176DOPC   H7Y24256   8.073   1.483   5.720  1.3418 -0.7334 -0.9727
  176DOPC   C3824257   7.964   1.406   5.550 -0.3703  0.1362  0.2957
  176DOPC   H8X24258   8.056   1.419   5.489 -0.0540 -1.5776  0.3363
  176DOPC   H8Y24259   7.902   1.497   5.537  0.9428  1.0908  0.5939
  176DOPC   C3924260   7.879   1.286   5.506 -0.5904  0.3311  1.0372
  176DOPC   H9X24261   7.800   1.256   5.576 -0.2461 -1.2141  0.7828
  176DOPC  C31024262   7.912   1.205   5.393  0.1869  0.3421  0.6821
  176DOPC  H10X24263   7.854   1.115   5.368 -0.2197  0.6441  0.5250
  176DOPC  C31124264   8.015   1.226   5.284 -0.2644  0.1270 -0.2493
  176DOPC  H11X24265   8.080   1.140   5.259  0.8698  1.0729 -0.6148
  176DOPC  H11Y24266   8.086   1.297   5.330  0.8433 -0.2335 -1.3615
  176DOPC  C31224267   7.969   1.300   5.161 -0.3860 -0.6317  0.6405
  176DOPC  H12X24268   7.897   1.378   5.196 -0.1686 -0.6299  1.1010
  176DOPC  H12Y24269   7.914   1.233   5.092 -1.2152 -0.1399  0.8037
  176DOPC  C31324270   8.076   1.372   5.086  0.0929 -0.5294  0.4856
  176DOPC  H13X24271   8.021   1.432   5.010 -0.5454 -1.0805  0.5002
  176DOPC  H13Y24272   8.132   1.442   5.150 -0.5186 -0.5307  1.0312
  176DOPC  C31424273   8.175   1.288   5.002 -0.3462  0.5407  0.4644
  176DOPC  H14X24274   8.205   1.193   5.050 -2.6776  0.1991  1.3910
  176DOPC  H14Y24275   8.121   1.254   4.911  2.1101 -0.3637 -0.7483
  176DOPC  C31524276   8.292   1.361   4.934  0.1656 -0.2163 -0.6672
  176DOPC  H15X24277   8.374   1.363   5.009 -1.2944 -0.2039  0.9856
  176DOPC  H15Y24278   8.263   1.464   4.906 -1.1122  0.1660  1.8534
  176DOPC  C31624279   8.332   1.279   4.811 -1.1603 -0.7498  0.6319
  176DOPC  H16X24280   8.342   1.171   4.834 -1.6869 -1.1796 -1.0092
  176DOPC  H16Y24281   8.255   1.289   4.732  2.2176  1.0903 -2.7913
  176DOPC  C31724282   8.469   1.326   4.750  0.5114 -0.1541 -0.0703
  176DOPC  H17X24283   8.457   1.427   4.705 -0.1544 -0.5519 -0.7953
  176DOPC  H17Y24284   8.556   1.324   4.819  1.1922  1.4989 -0.8261
  176DOPC  C31824285   8.513   1.240   4.635 -0.4072 -0.1221  0.0933
  176DOPC  H18X24286   8.615   1.268   4.601  0.6673 -2.6994  0.9256
  176DOPC  H18Y24287   8.519   1.136   4.674  2.1320 -0.1721 -0.2183
  176DOPC  H18Z24288   8.456   1.232   4.540 -1.0539 -1.4486  0.5646
  177DOPC     N24289   0.842   9.199   6.638 -0.1285  0.3601 -0.1181
  177DOPC   C1224290   0.750   9.210   6.518 -0.3611  0.2890 -0.4520
  177DOPC  H12A24291   0.765   9.122   6.457  0.2489 -0.2398  0.4338
  177DOPC  H12B24292   0.788   9.300   6.473 -0.8457  0.9399  0.4073
  177DOPC   C1324293   0.807   9.094   6.737  0.4868  0.6114  0.2542
  177DOPC  H13A24294   0.833   8.998   6.696 -0.7102  0.7036 -0.7577
  177DOPC  H13B24295   0.851   9.099   6.836 -0.2981  1.6704  0.5683
  177DOPC  H13C24296   0.700   9.089   6.751  0.6639 -1.4601  1.2795
  177DOPC   C1424297   0.850   9.325   6.714  0.2693 -0.5974  0.3210
  177DOPC  H14A24298   0.763   9.337   6.777 -0.0305 -1.1778  0.0299
  177DOPC  H14B24299   0.940   9.326   6.773  0.8027 -0.4337 -0.4752
  177DOPC  H14C24300   0.853   9.404   6.640  3.0433 -1.4653 -0.6006
  177DOPC   C1524301   0.980   9.168   6.590  0.0678 -0.8138 -0.2427
  177DOPC  H15A24302   1.003   9.203   6.490  0.2799 -3.2045 -1.0981
  177DOPC  H15B24303   0.985   9.063   6.565 -0.8386 -0.2825 -2.9770
  177DOPC  H15C24304   1.056   9.198   6.660  0.0876 -1.0456 -0.1639
  177DOPC   C1124305   0.594   9.234   6.527 -0.8672  0.3075 -0.4048
  177DOPC  H11A24306   0.576   9.327   6.585 -1.1766 -0.5412  0.9042
  177DOPC  H11B24307   0.549   9.246   6.427 -1.0596  0.7414 -0.2688
  177DOPC     P24308   0.513   8.987   6.526 -0.0788  0.0779  0.1804
  177DOPC   O1324309   0.380   8.976   6.460  0.3889 -0.1550 -1.0969
  177DOPC   O1424310   0.551   8.879   6.621 -0.2071  0.2171 -0.0179
  177DOPC   O1224311   0.526   9.128   6.596  0.3450  0.3912 -0.3352
  177DOPC   O1124312   0.618   8.989   6.409  0.3044  0.0205  0.0988
  177DOPC    C124313   0.675   8.863   6.358  0.1927  0.6319 -0.1431
  177DOPC    HA24314   0.595   8.789   6.333  0.3999  0.4142 -0.1623
  177DOPC    HB24315   0.751   8.819   6.426  0.2237 -0.8493 -1.0734
  177DOPC    C224316   0.760   8.881   6.228 -0.1549 -0.3381  0.2309
  177DOPC    HS24317   0.858   8.914   6.268 -0.1617 -1.1295  0.9284
  177DOPC   O2124318   0.693   8.972   6.141 -0.1133 -0.2079 -0.6198
  177DOPC   C2124319   0.730   9.098   6.145  0.2905 -0.3889 -0.3598
  177DOPC   O2224320   0.813   9.147   6.221 -0.5262 -0.0108 -0.6695
  177DOPC   C2224321   0.649   9.172   6.041  0.5353  0.1714  0.2955
  177DOPC   H2R24322   0.691   9.275   6.043  0.7199  0.0914  0.7454
  177DOPC   H2S24323   0.549   9.186   6.087 -0.0888 -0.5996 -0.7996
  177DOPC    C324324   0.787   8.745   6.155  0.8889  0.0190 -0.0489
  177DOPC    HX24325   0.691   8.701   6.117 -0.0399  1.8069  0.1393
  177DOPC    HY24326   0.830   8.678   6.233  1.7789 -0.3493 -0.8386
  177DOPC   O3124327   0.859   8.756   6.032  0.7831  0.3129 -0.3527
  177DOPC   C3124328   0.971   8.700   6.030  0.2934  0.3640 -0.1374
  177DOPC   O3224329   1.011   8.630   6.122 -0.6023 -0.0792 -0.3608
  177DOPC   C3224330   1.050   8.728   5.903  0.1282  0.9515 -0.3128
  177DOPC   H2X24331   1.047   8.838   5.882 -2.1837  0.5692 -2.4767
  177DOPC   H2Y24332   1.155   8.693   5.916 -0.1795 -0.0250 -0.4409
  177DOPC   C2324333   0.639   9.100   5.906  0.2291  0.2454  0.7897
  177DOPC   H3R24334   0.581   9.152   5.826  1.2898 -2.0402 -1.6091
  177DOPC   H3S24335   0.598   9.000   5.928 -1.7766  0.6830 -0.6622
  177DOPC   C2424336   0.781   9.086   5.846 -0.1208 -0.1976  0.5533
  177DOPC   H4R24337   0.857   9.039   5.911  2.2511 -0.4241 -2.1780
  177DOPC   H4S24338   0.812   9.191   5.824  1.2991 -1.1809 -2.7613
  177DOPC   C2524339   0.775   9.020   5.706  0.0076 -0.5546 -0.7937
  177DOPC   H5R24340   0.668   9.009   5.678  0.0023 -0.4087 -0.8320
  177DOPC   H5S24341   0.805   8.916   5.731 -1.7078 -0.5396  1.7188
  177DOPC   C2624342   0.852   9.100   5.606 -0.0555 -0.5055 -0.1915
  177DOPC   H6R24343   0.960   9.098   5.632 -0.3429 -1.5456  0.9909
  177DOPC   H6S24344   0.806   9.201   5.610 -2.3379 -1.5457  2.4461
  177DOPC   C2724345   0.835   9.036   5.462  0.0195 -0.3343  0.7019
  177DOPC   H7R24346   0.731   9.039   5.423  0.2904 -1.2426 -0.1280
  177DOPC   H7S24347   0.863   8.929   5.463 -1.2307 -0.8436 -2.9787
  177DOPC   C2824348   0.926   9.104   5.353  0.0013 -0.3040 -0.2484
  177DOPC   H8R24349   1.030   9.124   5.387  0.4050  2.6729 -2.8340
  177DOPC   H8S24350   0.889   9.207   5.337  1.5200 -0.0782 -2.7692
  177DOPC   C2924351   0.927   9.031   5.226  0.4495  0.3620 -0.1874
  177DOPC   H9R24352   0.914   8.923   5.238  1.0814  0.3212  0.1516
  177DOPC  C21024353   0.912   9.087   5.101  0.0954  0.9172 -0.5195
  177DOPC  H10R24354   0.916   9.016   5.017 -1.1750  1.3974 -1.0201
  177DOPC  C21124355   0.924   9.238   5.082 -0.0990 -0.1813 -0.5362
  177DOPC  H11R24356   1.001   9.278   5.152  0.1488 -1.6619  0.0804
  177DOPC  H11S24357   0.831   9.298   5.082  1.5187  2.5471  0.4991
  177DOPC  C21224358   0.974   9.265   4.935 -1.0542  0.0392 -0.3821
  177DOPC  H12R24359   1.080   9.246   4.909 -1.0660 -0.6018  0.0202
  177DOPC  H12S24360   0.955   9.375   4.940 -1.5376 -0.0836  0.9154
  177DOPC  C21324361   0.877   9.224   4.825 -0.7458 -0.1698 -0.0864
  177DOPC  H13R24362   0.775   9.262   4.849 -0.9933 -0.8717 -0.0095
  177DOPC  H13S24363   0.873   9.114   4.810 -0.1082 -0.0849 -0.9200
  177DOPC  C21424364   0.901   9.281   4.683  0.0562  0.4481 -0.6058
  177DOPC  H14R24365   1.001   9.242   4.653 -0.8903 -0.9229 -2.1530
  177DOPC  H14S24366   0.887   9.391   4.697  1.4855  0.9189 -2.3770
  177DOPC  C21524367   0.785   9.231   4.589  0.2603  0.4054 -0.5220
  177DOPC  H15R24368   0.687   9.255   4.636 -0.0139  0.2982 -1.0351
  177DOPC  H15S24369   0.796   9.122   4.571  2.8938  0.5251  0.0354
  177DOPC  C21624370   0.784   9.308   4.455 -0.3448 -0.1294 -1.1370
  177DOPC  H16R24371   0.884   9.303   4.405 -0.3208 -1.8392 -0.9965
  177DOPC  H16S24372   0.757   9.410   4.488 -1.3957 -0.4715 -0.9185
  177DOPC  C21724373   0.672   9.264   4.360 -0.3545  0.6585 -0.4178
  177DOPC  H17R24374   0.574   9.288   4.406  0.4410  0.7973  1.2805
  177DOPC  H17S24375   0.669   9.155   4.340 -2.5053  0.5361  0.3008
  177DOPC  C21824376   0.678   9.347   4.233 -0.4571  0.4344  0.0315
  177DOPC  H18R24377   0.636   9.448   4.249 -1.0750  0.1798  0.0409
  177DOPC  H18S24378   0.603   9.303   4.164 -0.4940 -0.1724  0.4565
  177DOPC  H18T24379   0.780   9.341   4.188 -1.0024  0.2325 -1.2271
  177DOPC   C3324380   0.974   8.669   5.782 -0.2202 -0.4543 -0.6311
  177DOPC   H3X24381   0.865   8.687   5.780 -0.1377  0.2467  0.4645
  177DOPC   H3Y24382   0.991   8.559   5.775 -1.3929 -0.6299 -0.9132
  177DOPC   C3424383   1.034   8.734   5.652  0.0434 -0.0640  0.3556
  177DOPC   H4X24384   1.141   8.743   5.682 -0.1230 -1.3861  1.4169
  177DOPC   H4Y24385   1.001   8.838   5.629  1.2038  0.4448  0.8737
  177DOPC   C3524386   1.037   8.638   5.534 -0.0265 -0.4817 -0.2507
  177DOPC   H5X24387   0.934   8.635   5.494  0.0628  1.8208 -0.8398
  177DOPC   H5Y24388   1.064   8.532   5.551  1.1639 -0.1181  0.2838
  177DOPC   C3624389   1.113   8.693   5.409 -0.6610  0.0028 -0.0190
  177DOPC   H6X24390   1.086   8.800   5.396 -0.0342  0.1863  0.1273
  177DOPC   H6Y24391   1.222   8.689   5.433 -0.7545 -2.0805  0.2517
  177DOPC   C3724392   1.085   8.614   5.277 -0.3983  0.3338  0.0929
  177DOPC   H7X24393   1.128   8.512   5.278 -1.8458 -0.3744 -2.0170
  177DOPC   H7Y24394   0.975   8.597   5.272 -0.3749  0.5651 -1.9263
  177DOPC   C3824395   1.121   8.696   5.155 -0.4986 -0.3812  0.0595
  177DOPC   H8X24396   1.060   8.788   5.149 -3.7086 -2.1536  2.3891
  177DOPC   H8Y24397   1.093   8.628   5.071  0.4274 -1.2984  0.4743
  177DOPC   C3924398   1.268   8.734   5.147 -0.2948 -0.9527 -0.5670
  177DOPC   H9X24399   1.289   8.821   5.210  0.6334 -1.4657 -0.1338
  177DOPC  C31024400   1.353   8.702   5.054 -0.0299 -0.3086  0.8583
  177DOPC  H10X24401   1.458   8.735   5.058 -0.5175  1.4875  0.0769
  177DOPC  C31124402   1.329   8.608   4.943 -0.0300  0.3280  0.0691
  177DOPC  H11X24403   1.246   8.539   4.970 -1.3261  2.1130  0.8196
  177DOPC  H11Y24404   1.420   8.547   4.921  0.4820  2.0240 -2.9912
  177DOPC  C31224405   1.302   8.666   4.804 -0.0883  0.2018 -0.3811
  177DOPC  H12X24406   1.323   8.592   4.724  0.2040 -0.0716 -0.0545
  177DOPC  H12Y24407   1.380   8.745   4.801  1.1112 -0.9085  0.6841
  177DOPC  C31324408   1.160   8.731   4.791  0.7514 -0.1537 -0.9977
  177DOPC  H13X24409   1.093   8.644   4.810 -0.8137  1.1478 -0.2481
  177DOPC  H13Y24410   1.133   8.803   4.871 -0.6457  0.2579 -1.8027
  177DOPC  C31424411   1.133   8.777   4.647  0.2415 -0.1681  0.6061
  177DOPC  H14X24412   1.212   8.842   4.603  0.3094 -0.2339  0.6301
  177DOPC  H14Y24413   1.132   8.682   4.589  0.4378 -0.7576  1.5456
  177DOPC  C31524414   0.998   8.848   4.632  0.3270  0.5445  0.9548
  177DOPC  H15X24415   0.989   8.934   4.701  0.1261 -0.9907  2.9614
  177DOPC  H15Y24416   0.923   8.772   4.665  1.1134 -1.2658 -1.1815
  177DOPC  C31624417   0.961   8.892   4.492  0.0537  0.5507 -0.3473
  177DOPC  H16X24418   0.965   8.811   4.416 -1.1138 -1.1401  1.3257
  177DOPC  H16Y24419   0.861   8.938   4.503  0.9733  2.1010  3.3514
  177DOPC  C31724420   1.049   9.009   4.458  0.4642 -0.0300  0.6230
  177DOPC  H17X24421   1.046   9.085   4.539 -1.5385 -0.7939  1.3299
  177DOPC  H17Y24422   1.154   8.976   4.443  0.0545 -0.6995 -1.0013
  177DOPC  C31824423   1.003   9.078   4.333 -0.0933  0.1160  0.3372
  177DOPC  H18X24424   0.896   9.106   4.339 -0.8659 -2.0312 -1.8838
  177DOPC  H18Y24425   1.069   9.168   4.324 -0.1344  0.1039 -0.1082
  177DOPC  H18Z24426   1.024   9.017   4.243 -0.3841  0.2741  0.1611
  178DOPC     N24427   9.459   4.569   6.466 -0.7040 -0.3100  0.3610
  178DOPC   C1224428   9.490   4.468   6.351  0.1069 -0.0469  0.1828
  178DOPC  H12A24429   9.513   4.370   6.389 -2.5227 -0.9015 -0.2622
  178DOPC  H12B24430   9.579   4.507   6.303 -0.8202  1.8407 -0.0802
  178DOPC   C1324431   9.359   4.523   6.565  0.0068  0.4218  0.0463
  178DOPC  H13A24432   9.332   4.601   6.634  0.8722  1.3360 -0.6114
  178DOPC  H13B24433   9.267   4.496   6.515 -1.0381  0.9755  1.5892
  178DOPC  H13C24434   9.398   4.443   6.626  2.1903  1.2127 -0.2261
  178DOPC   C1424435   9.421   4.701   6.418  0.3028  0.4579  0.3784
  178DOPC  H14A24436   9.342   4.698   6.345 -1.3845 -0.0060  2.1194
  178DOPC  H14B24437   9.385   4.772   6.491 -2.9369 -1.5985  0.9726
  178DOPC  H14C24438   9.502   4.735   6.356 -0.5175  0.6467 -0.6071
  178DOPC   C1524439   9.587   4.585   6.536 -0.8626 -0.2122 -0.8198
  178DOPC  H15A24440   9.618   4.492   6.580  0.8071 -1.0347 -3.4618
  178DOPC  H15B24441   9.590   4.655   6.618 -1.3729 -0.6910 -0.3922
  178DOPC  H15C24442   9.668   4.599   6.465  1.1481 -3.0554  0.7597
  178DOPC   C1124443   9.376   4.452   6.245 -0.2747  0.0752 -0.2647
  178DOPC  H11A24444   9.361   4.556   6.209  0.8715  0.1848 -0.4881
  178DOPC  H11B24445   9.403   4.380   6.165 -1.6126 -1.1349  0.3334
  178DOPC     P24446   9.124   4.431   6.256  0.1387 -0.6395 -0.2522
  178DOPC   O1324447   9.066   4.542   6.345 -0.1736 -0.2104  0.9285
  178DOPC   O1424448   9.044   4.308   6.241  0.3236 -0.0866 -0.3754
  178DOPC   O1224449   9.264   4.392   6.303 -0.1487 -0.4614 -0.4527
  178DOPC   O1124450   9.157   4.491   6.114  0.3102  0.0324  0.4410
  178DOPC    C124451   9.056   4.577   6.048 -0.1502  0.1163 -0.2282
  178DOPC    HA24452   9.094   4.617   5.952 -0.8823  2.1184  0.2742
  178DOPC    HB24453   9.030   4.664   6.112 -0.5027 -0.4387  0.3965
  178DOPC    C224454   8.922   4.506   6.011  0.4555  0.3506 -0.1407
  178DOPC    HS24455   8.865   4.479   6.102 -0.4389 -0.5315 -0.9440
  178DOPC   O2124456   8.963   4.388   5.933 -0.3477 -0.1610  0.1929
  178DOPC   C2124457   8.874   4.296   5.910 -0.1620 -0.0969 -0.4076
  178DOPC   O2224458   8.760   4.290   5.962 -0.0203  0.4440  0.0299
  178DOPC   C2224459   8.943   4.200   5.817  0.3594 -0.0477  0.1580
  178DOPC   H2R24460   8.906   4.100   5.849  0.0265  0.4898  1.5088
  178DOPC   H2S24461   9.053   4.198   5.828  0.3275 -0.0879  0.4819
  178DOPC    C324462   8.821   4.594   5.924  0.2140 -0.0187  0.1363
  178DOPC    HX24463   8.776   4.669   5.991 -1.7453 -1.4382  0.5062
  178DOPC    HY24464   8.745   4.526   5.880  1.6526 -0.2954 -2.1378
  178DOPC   O3124465   8.892   4.665   5.820  0.5730  0.2819 -0.0624
  178DOPC   C3124466   8.819   4.753   5.749  0.2302  0.1798 -0.5342
  178DOPC   O3224467   8.706   4.790   5.777 -0.2687  0.0555  0.0483
  178DOPC   C3224468   8.890   4.790   5.618 -0.3729  0.1374  0.1672
  178DOPC   H2X24469   8.845   4.882   5.576 -3.1396 -1.3922 -0.4331
  178DOPC   H2Y24470   8.999   4.790   5.638 -0.5297 -2.4740  1.4557
  178DOPC   C2324471   8.935   4.226   5.667 -0.3870 -0.5587  0.3479
  178DOPC   H3R24472   8.994   4.315   5.636 -0.2328 -1.0877 -0.9409
  178DOPC   H3S24473   8.832   4.249   5.631 -0.6277 -2.1641 -0.0723
  178DOPC   C2424474   8.992   4.108   5.587  0.2485 -0.9901 -0.2278
  178DOPC   H4R24475   8.940   4.018   5.625 -1.1122  0.1006  0.5843
  178DOPC   H4S24476   9.096   4.104   5.626 -0.3571 -0.4938  1.5150
  178DOPC   C2524477   8.986   4.123   5.440 -0.2244  0.0231 -0.0788
  178DOPC   H5R24478   9.042   4.041   5.390  0.1401  0.6447 -0.7007
  178DOPC   H5S24479   9.040   4.218   5.420 -1.0415  0.4208 -0.4596
  178DOPC   C2624480   8.848   4.138   5.372  0.3416 -0.1190  0.6215
  178DOPC   H6R24481   8.797   4.224   5.421 -1.4632 -1.8946  1.9788
  178DOPC   H6S24482   8.782   4.058   5.410 -1.6458  1.1026 -0.0836
  178DOPC   C2724483   8.857   4.162   5.218 -0.0444 -0.5624 -0.6450
  178DOPC   H7R24484   8.897   4.262   5.189  1.3449 -0.7000  0.6605
  178DOPC   H7S24485   8.749   4.168   5.194 -0.2282 -0.0792  0.2633
  178DOPC   C2824486   8.919   4.050   5.137  0.2386 -0.0064  0.3023
  178DOPC   H8R24487   9.025   4.018   5.146  0.7925  0.5404 -2.8338
  178DOPC   H8S24488   8.923   4.085   5.031 -0.2310 -1.2426 -0.1418
  178DOPC   C2924489   8.832   3.927   5.153 -0.3159 -0.7591 -0.0821
  178DOPC   H9R24490   8.858   3.868   5.242  0.1236  0.1964  0.4410
  178DOPC  C21024491   8.713   3.893   5.103 -0.0682  0.2221 -0.4890
  178DOPC  H10R24492   8.684   3.790   5.127  0.3548 -0.1891 -1.6562
  178DOPC  C21124493   8.635   3.967   5.000 -0.8555 -0.7471 -0.0459
  178DOPC  H11R24494   8.640   4.077   5.007 -0.8890 -0.6292 -1.5207
  178DOPC  H11S24495   8.531   3.932   5.015 -0.8891 -1.0414 -0.8791
  178DOPC  C21224496   8.681   3.933   4.854 -0.0840 -0.0123  0.1433
  178DOPC  H12R24497   8.790   3.949   4.838  0.1327 -1.3836  0.0796
  178DOPC  H12S24498   8.620   3.980   4.774  0.1967 -0.7962 -0.5599
  178DOPC  C21324499   8.669   3.787   4.820 -0.5835 -0.1233 -0.4458
  178DOPC  H13R24500   8.569   3.743   4.840 -0.4532 -1.1916 -1.9223
  178DOPC  H13S24501   8.745   3.729   4.875 -1.2936  0.4570  1.2216
  178DOPC  C21424502   8.689   3.755   4.666 -0.8452  0.2421  0.5413
  178DOPC  H14R24503   8.794   3.780   4.640 -0.8445  0.6240  0.9065
  178DOPC  H14S24504   8.621   3.819   4.606  0.7155  1.5644  0.1286
  178DOPC  C21524505   8.679   3.607   4.638 -0.5969  1.0027  0.2717
  178DOPC  H15R24506   8.582   3.573   4.680 -0.3371  1.8212  1.5972
  178DOPC  H15S24507   8.758   3.538   4.676 -0.0725  1.5835  0.2421
  178DOPC  C21624508   8.668   3.589   4.488  0.4264 -0.1007  0.1720
  178DOPC  H16R24509   8.604   3.667   4.441 -0.8960 -0.8380  0.6863
  178DOPC  H16S24510   8.608   3.497   4.472 -0.4753  0.6497 -0.9659
  178DOPC  C21724511   8.796   3.592   4.407 -0.0813  0.5587  0.4508
  178DOPC  H17R24512   8.852   3.687   4.423 -0.6121  0.7575  1.2157
  178DOPC  H17S24513   8.777   3.579   4.299  1.3355  0.6087  0.1765
  178DOPC  C21824514   8.888   3.479   4.448 -0.0284  0.6040  0.4062
  178DOPC  H18R24515   8.840   3.380   4.432  1.3853  0.0030 -0.2971
  178DOPC  H18S24516   8.921   3.480   4.554  1.0355 -0.8840  0.1289
  178DOPC  H18T24517   8.978   3.471   4.383 -1.4886  1.0163 -1.8010
  178DOPC   C3324518   8.872   4.671   5.511 -0.2979 -0.6090  0.0767
  178DOPC   H3X24519   8.764   4.649   5.495 -0.5189  1.4134 -1.5377
  178DOPC   H3Y24520   8.907   4.576   5.556 -0.2834 -0.7276 -0.1813
  178DOPC   C3424521   8.951   4.701   5.383  0.1289 -0.1440 -0.0686
  178DOPC   H4X24522   9.042   4.756   5.414  0.7581 -1.2181  0.0615
  178DOPC   H4Y24523   8.891   4.770   5.320  0.0069 -0.9837 -0.9146
  178DOPC   C3524524   8.995   4.581   5.295 -0.0200 -0.6701 -0.3746
  178DOPC   H5X24525   8.910   4.524   5.252 -0.0667 -0.7306 -0.2036
  178DOPC   H5Y24526   9.045   4.516   5.371  3.0629  1.0724 -0.7418
  178DOPC   C3624527   9.095   4.621   5.193 -0.3725 -0.9052 -0.7388
  178DOPC   H6X24528   9.044   4.619   5.094 -0.1001  2.7043 -1.0506
  178DOPC   H6Y24529   9.142   4.721   5.207 -1.6963 -0.2721 -0.7244
  178DOPC   C3724530   9.203   4.516   5.189 -0.3384  0.8023 -0.0428
  178DOPC   H7X24531   9.266   4.542   5.101 -0.3389 -0.0952 -0.3222
  178DOPC   H7Y24532   9.266   4.519   5.280 -1.0002 -0.0458  0.4626
  178DOPC   C3824533   9.141   4.380   5.153  0.4521  0.1881 -0.1658
  178DOPC   H8X24534   9.062   4.398   5.077 -2.1218  2.1879  2.7195
  178DOPC   H8Y24535   9.095   4.327   5.239 -0.3313  0.3113 -0.4994
  178DOPC   C3924536   9.235   4.275   5.093  0.1572  0.5098 -0.2369
  178DOPC   H9X24537   9.303   4.223   5.162  0.9099 -1.5897 -2.4117
  178DOPC  C31024538   9.252   4.254   4.964  0.5315  0.7065 -0.0698
  178DOPC  H10X24539   9.294   4.159   4.928  1.9702  0.9150  0.9311
  178DOPC  C31124540   9.183   4.322   4.849 -0.8353 -0.4544  0.0760
  178DOPC  H11X24541   9.086   4.366   4.880  0.4515  0.9755  2.3649
  178DOPC  H11Y24542   9.170   4.239   4.776 -2.3622 -0.6421  0.5289
  178DOPC  C31224543   9.270   4.446   4.797 -0.0542 -0.4460 -0.5139
  178DOPC  H12X24544   9.377   4.417   4.795  0.7289  2.2334 -1.3124
  178DOPC  H12Y24545   9.268   4.523   4.878 -1.5780  0.3081 -1.2216
  178DOPC  C31324546   9.228   4.508   4.659  0.4578 -0.1778 -0.6289
  178DOPC  H13X24547   9.298   4.593   4.640  2.0817 -0.5057  2.9201
  178DOPC  H13Y24548   9.251   4.427   4.587 -0.3445 -0.8860 -0.1150
  178DOPC  C31424549   9.081   4.557   4.632 -0.2753  0.3470  0.3097
  178DOPC  H14X24550   9.018   4.478   4.678 -0.8786  1.0790  0.7744
  178DOPC  H14Y24551   9.059   4.654   4.682 -0.5122 -0.1069  1.1158
  178DOPC  C31524552   9.052   4.543   4.484 -0.5331 -0.5991 -0.0835
  178DOPC  H15X24553   9.033   4.435   4.464  0.2239 -0.6339 -0.6579
  178DOPC  H15Y24554   9.144   4.563   4.426 -0.4906 -0.0415  0.1716
  178DOPC  C31624555   8.920   4.602   4.426  1.0257 -0.1142  0.2420
  178DOPC  H16X24556   8.829   4.571   4.481  0.1004  1.7199 -0.1855
  178DOPC  H16Y24557   8.928   4.709   4.456 -2.3976 -0.0349  1.2856
  178DOPC  C31724558   8.914   4.624   4.273 -0.2628  0.0491 -0.2825
  178DOPC  H17X24559   9.000   4.689   4.246 -0.5403  0.8270  0.6385
  178DOPC  H17Y24560   8.933   4.525   4.227 -0.9176 -0.4602  0.5114
  178DOPC  C31824561   8.780   4.679   4.220  0.0143 -0.2535  0.4843
  178DOPC  H18X24562   8.801   4.696   4.112  0.8964 -0.5339  0.6061
  178DOPC  H18Y24563   8.746   4.773   4.268  0.6983  0.6429 -0.7256
  178DOPC  H18Z24564   8.697   4.604   4.224  1.0288 -1.5739 -1.3840
  179DOPC     N24565   6.895  11.663   6.215 -0.2613 -0.1922  0.0583
  179DOPC   C1224566   6.822  11.794   6.238 -0.4861  0.2536  0.1460
  179DOPC  H12A24567   6.739  11.762   6.299 -1.3382  2.0134 -0.0357
  179DOPC  H12B24568   6.784  11.830   6.143 -0.4675  0.1314  0.0915
  179DOPC   C1324569   6.926  11.612   6.352  0.2432  0.0183  1.0771
  179DOPC  H13A24570   6.834  11.599   6.407 -0.5943  1.8854  0.2167
  179DOPC  H13B24571   6.975  11.517   6.342  0.4893  0.1766  0.7636
  179DOPC  H13C24572   6.988  11.685   6.403  0.7622  0.7845 -0.6037
  179DOPC   C1424573   7.024  11.681   6.138 -0.2241 -0.2560  0.2346
  179DOPC  H14A24574   7.004  11.708   6.036 -1.6937  0.8568  0.7871
  179DOPC  H14B24575   7.085  11.764   6.171 -0.7947  0.6176 -0.8441
  179DOPC  H14C24576   7.083  11.591   6.132  0.1324 -0.2556  2.5327
  179DOPC   C1524577   6.816  11.559   6.140 -0.7198  0.4112 -0.1282
  179DOPC  H15A24578   6.720  11.535   6.185 -0.4552 -0.2677  0.0892
  179DOPC  H15B24579   6.869  11.465   6.135 -1.9160 -0.1956 -3.5822
  179DOPC  H15C24580   6.794  11.601   6.043 -0.6917  0.7257 -0.0004
  179DOPC   C1124581   6.890  11.908   6.313 -0.2417 -0.8256 -0.6537
  179DOPC  H11A24582   6.903  11.879   6.420  0.7816 -0.1926 -0.5862
  179DOPC  H11B24583   6.983  11.943   6.263  0.1476 -1.2341 -0.2307
  179DOPC     P24584   6.835  12.152   6.365 -0.0528  0.6760 -0.0120
  179DOPC   O1324585   6.917  12.135   6.490 -0.3196  0.5071 -0.1856
  179DOPC   O1424586   6.721  12.243   6.376  0.3816 -0.0720 -0.3035
  179DOPC   O1224587   6.793  12.014   6.316  0.4481 -0.4780 -0.1590
  179DOPC   O1124588   6.932  12.200   6.250 -0.2025 -0.0765  0.4017
  179DOPC    C124589   6.888  12.203   6.109  0.6429  0.3041 -0.1679
  179DOPC    HA24590   6.790  12.255   6.110 -0.2325 -1.2367 -1.5198
  179DOPC    HB24591   6.870  12.100   6.072 -0.9368  0.5123 -0.0556
  179DOPC    C224592   6.980  12.278   6.006  0.3667  0.3238 -0.3513
  179DOPC    HS24593   6.935  12.278   5.904  0.2919  0.3113 -0.3180
  179DOPC   O2124594   7.104  12.203   6.014  0.3416  0.5876  0.2951
  179DOPC   C2124595   7.105  12.088   5.949  0.6066 -0.0428 -0.2445
  179DOPC   O2224596   7.015  12.042   5.879 -0.1071 -0.2844  0.6391
  179DOPC   C2224597   7.227  12.013   5.992 -0.2212 -0.4127  0.0404
  179DOPC   H2R24598   7.206  11.948   6.080  2.9044 -0.5322  0.8041
  179DOPC   H2S24599   7.307  12.081   6.026  1.4550 -2.1512 -0.2466
  179DOPC    C324600   7.000  12.427   6.041 -0.2096  0.1339 -0.2948
  179DOPC    HX24601   7.069  12.435   6.128 -0.7768 -1.0728  0.2982
  179DOPC    HY24602   6.911  12.468   6.094  1.5155  1.9364  1.3620
  179DOPC   O3124603   7.054  12.497   5.922 -0.1790 -0.4259 -0.6939
  179DOPC   C3124604   6.956  12.546   5.854  0.1022 -0.0501 -0.0682
  179DOPC   O3224605   6.839  12.552   5.889 -0.7841  0.1193 -0.3657
  179DOPC   C3224606   6.986  12.605   5.715 -0.1620 -0.0267 -0.3979
  179DOPC   H2X24607   6.963  12.523   5.645 -0.2660  2.1354 -3.0708
  179DOPC   H2Y24608   6.914  12.689   5.701  0.5417  0.3842 -1.7149
  179DOPC   C2324609   7.294  11.925   5.891 -0.1856 -0.1109 -0.4164
  179DOPC   H3R24610   7.335  11.976   5.801  0.6112  1.8791  1.0256
  179DOPC   H3S24611   7.226  11.842   5.861  1.4710 -2.7918  2.6392
  179DOPC   C2424612   7.425  11.859   5.947 -0.2476  1.0310  0.1645
  179DOPC   H4R24613   7.394  11.826   6.048 -1.6489 -0.2086 -0.6273
  179DOPC   H4S24614   7.505  11.936   5.960  1.2110 -0.4380  0.1514
  179DOPC   C2524615   7.478  11.745   5.857  0.0422  1.1082 -0.1150
  179DOPC   H5R24616   7.418  11.653   5.872  0.0035  1.1672  0.0883
  179DOPC   H5S24617   7.579  11.709   5.888 -0.1065  1.3458  0.6692
  179DOPC   C2624618   7.485  11.775   5.701  0.3836  0.3063 -0.3582
  179DOPC   H6R24619   7.526  11.877   5.686 -0.9064  0.8075 -0.6001
  179DOPC   H6S24620   7.390  11.771   5.644  0.4077 -2.6688 -0.3660
  179DOPC   C2724621   7.570  11.670   5.625  0.2298  0.1325 -0.3931
  179DOPC   H7R24622   7.522  11.571   5.638 -1.5785  0.4190 -3.8215
  179DOPC   H7S24623   7.666  11.672   5.681 -0.0177  1.1076  0.0214
  179DOPC   C2824624   7.579  11.700   5.476 -0.5914  0.1648 -0.0284
  179DOPC   H8R24625   7.621  11.803   5.465  0.2590  0.1271  2.2194
  179DOPC   H8S24626   7.473  11.696   5.442 -0.3983 -1.9264 -0.4827
  179DOPC   C2924627   7.670  11.606   5.400 -0.9276  0.0778 -0.0353
  179DOPC   H9R24628   7.758  11.663   5.367 -1.0647  0.0524 -0.4444
  179DOPC  C21024629   7.628  11.490   5.352 -0.4273  0.3071 -0.1540
  179DOPC  H10R24630   7.692  11.425   5.290 -1.3093  1.1978 -2.0680
  179DOPC  C21124631   7.497  11.423   5.383 -0.1076 -0.0710 -0.7123
  179DOPC  H11R24632   7.444  11.460   5.474 -0.9604 -1.2454 -0.6904
  179DOPC  H11S24633   7.519  11.316   5.407 -1.9889 -0.5707 -1.0462
  179DOPC  C21224634   7.403  11.425   5.263 -0.0663 -0.2135 -0.2183
  179DOPC  H12R24635   7.453  11.365   5.185  1.2436 -1.8630  1.7935
  179DOPC  H12S24636   7.392  11.529   5.225  0.5190 -0.1984 -0.3486
  179DOPC  C21324637   7.262  11.353   5.297 -0.4562  0.1864  0.6401
  179DOPC  H13R24638   7.210  11.406   5.379  0.9218  1.7424  0.5592
  179DOPC  H13S24639   7.286  11.248   5.323  0.0707  0.7250  2.4342
  179DOPC  C21424640   7.160  11.362   5.177 -0.1713 -0.5558  0.1433
  179DOPC  H14R24641   7.197  11.291   5.101  0.0404  0.8991 -1.1545
  179DOPC  H14S24642   7.173  11.464   5.134  0.6678 -0.3242  0.9152
  179DOPC  C21524643   7.007  11.345   5.204  0.4972  0.1974  0.0101
  179DOPC  H15R24644   6.956  11.398   5.287  1.0489  3.2832 -1.4859
  179DOPC  H15S24645   6.998  11.236   5.221 -0.8036  0.3397  0.3786
  179DOPC  C21624646   6.938  11.394   5.075  0.2464 -0.2730  0.2050
  179DOPC  H16R24647   6.982  11.344   4.985 -0.5530  1.6679 -1.3423
  179DOPC  H16S24648   6.966  11.501   5.069  0.5836 -0.3996 -0.7943
  179DOPC  C21724649   6.790  11.360   5.084 -0.0884  0.2404 -0.1920
  179DOPC  H17R24650   6.750  11.414   5.173 -0.5294  0.6976 -0.6623
  179DOPC  H17S24651   6.789  11.249   5.091  0.4647  0.1424 -1.4313
  179DOPC  C21824652   6.715  11.416   4.967 -0.1768 -0.5514  0.0639
  179DOPC  H18R24653   6.705  11.336   4.891 -0.9749 -1.6141  1.2311
  179DOPC  H18S24654   6.767  11.509   4.936  1.7251 -0.8240  2.0986
  179DOPC  H18T24655   6.614  11.444   5.004  0.1063 -0.1803  0.5804
  179DOPC   C3324656   7.132  12.648   5.674 -0.4846  0.5037 -0.1972
  179DOPC   H3X24657   7.198  12.564   5.704 -0.2109  1.0623  0.8183
  179DOPC   H3Y24658   7.167  12.739   5.728  1.4178  0.2780 -0.9613
  179DOPC   C3424659   7.143  12.682   5.524 -0.1504 -0.3035 -0.2300
  179DOPC   H4X24660   7.084  12.776   5.515  1.2060  0.6739  0.6293
  179DOPC   H4Y24661   7.095  12.611   5.453  0.2462 -1.2132  0.4065
  179DOPC   C3524662   7.290  12.717   5.493  0.0534 -0.9692  0.3323
  179DOPC   H5X24663   7.343  12.620   5.482  0.6066 -0.4458 -2.4529
  179DOPC   H5Y24664   7.326  12.789   5.570  0.7299 -2.2025  1.1956
  179DOPC   C3624665   7.310  12.777   5.359 -0.1667 -0.7994  0.1800
  179DOPC   H6X24666   7.260  12.723   5.276  0.4403 -1.8218  0.4587
  179DOPC   H6Y24667   7.272  12.881   5.365 -1.0164 -0.9970 -1.2623
  179DOPC   C3724668   7.460  12.796   5.308 -0.5547  0.8582 -0.2446
  179DOPC   H7X24669   7.532  12.839   5.381 -0.6136  1.8698 -0.7553
  179DOPC   H7Y24670   7.495  12.692   5.291  0.0564  0.7685  1.3802
  179DOPC   C3824671   7.476  12.881   5.181 -0.8022  0.0419  0.2793
  179DOPC   H8X24672   7.586  12.884   5.169 -0.9076  0.0051 -0.7425
  179DOPC   H8Y24673   7.444  12.987   5.193 -0.7711  0.1561 -0.5683
  179DOPC   C3924674   7.411  12.823   5.055  0.4559  0.0174  0.5559
  179DOPC   H9X24675   7.308  12.798   5.084  0.4344 -0.0479  0.4247
  179DOPC  C31024676   7.478  12.779   4.943 -0.6450  0.4491  0.1017
  179DOPC  H10X24677   7.420  12.722   4.869 -0.1763 -1.4244  1.1090
  179DOPC  C31124678   7.624  12.778   4.908  0.1417 -0.3614 -0.2385
  179DOPC  H11X24679   7.639  12.713   4.819  0.1482 -0.7673  0.0572
  179DOPC  H11Y24680   7.682  12.730   4.990 -0.5750  2.0917  1.8442
  179DOPC  C31224681   7.681  12.922   4.875 -0.4966 -0.4134 -0.1530
  179DOPC  H12X24682   7.791  12.912   4.870  0.1430  2.6187  3.4461
  179DOPC  H12Y24683   7.655  12.986   4.962 -0.9293 -0.4935 -0.2212
  179DOPC  C31324684   7.615  12.985   4.756  1.2868 -0.3840 -0.1719
  179DOPC  H13X24685   7.645  12.933   4.662 -0.3020  0.1893 -1.0358
  179DOPC  H13Y24686   7.505  12.987   4.764  1.3542  0.3288  0.7034
  179DOPC  C31424687   7.667  13.132   4.730 -0.5369 -0.3539 -0.1114
  179DOPC  H14X24688   7.777  13.128   4.722 -0.4892  0.0300  0.3142
  179DOPC  H14Y24689   7.623  13.155   4.631 -0.5356 -0.2121 -0.0794
  179DOPC  C31524690   7.611  13.240   4.825 -0.1510 -0.2354 -0.0177
  179DOPC  H15X24691   7.652  13.219   4.926 -0.7928  0.4191  0.3887
  179DOPC  H15Y24692   7.503  13.219   4.841 -0.3614 -0.5099 -1.6482
  179DOPC  C31624693   7.624  13.392   4.782 -0.2657  0.0870 -0.0315
  179DOPC  H16X24694   7.729  13.422   4.803 -0.3772  0.2253  0.3321
  179DOPC  H16Y24695   7.602  13.405   4.674  2.0130 -3.2269 -1.0561
  179DOPC  C31724696   7.525  13.482   4.848  0.0654 -0.0316  0.2775
  179DOPC  H17X24697   7.550  13.584   4.812  1.2086 -1.1032 -2.2444
  179DOPC  H17Y24698   7.423  13.455   4.814 -0.0095  0.3606  0.1868
  179DOPC  C31824699   7.523  13.475   5.004 -0.1039  0.2540  0.3227
  179DOPC  H18X24700   7.618  13.505   5.055 -1.3742  3.2710  1.1510
  179DOPC  H18Y24701   7.443  13.544   5.038 -1.1689 -1.4759  1.5178
  179DOPC  H18Z24702   7.498  13.375   5.044 -1.2780  0.7918  0.9827
  180DOPC     N24703   2.202  10.568   6.388  0.0511 -0.6718 -0.1302
  180DOPC   C1224704   2.178  10.449   6.303 -0.4185 -0.6407 -0.1988
  180DOPC  H12A24705   2.071  10.439   6.298 -0.5660  1.0740 -1.4715
  180DOPC  H12B24706   2.217  10.365   6.358  1.6553  1.3461  1.6004
  180DOPC   C1324707   2.334  10.587   6.456 -0.1800 -0.0560 -0.4134
  180DOPC  H13A24708   2.411  10.618   6.387 -0.0972  0.8707  0.0797
  180DOPC  H13B24709   2.335  10.654   6.541 -0.8359 -1.3421  0.6442
  180DOPC  H13C24710   2.355  10.486   6.490 -0.2510  0.4408  1.1837
  180DOPC   C1424711   2.094  10.555   6.496  0.7206  0.0842 -0.4045
  180DOPC  H14A24712   2.121  10.494   6.581  2.6694  1.6766  0.2041
  180DOPC  H14B24713   2.076  10.653   6.537  0.8507  0.0723 -0.3157
  180DOPC  H14C24714   2.000  10.525   6.452  1.5694 -0.2898 -2.0431
  180DOPC   C1524715   2.169  10.698   6.316 -0.6245 -0.3395 -0.6694
  180DOPC  H15A24716   2.175  10.786   6.377  1.2393 -0.8820 -0.0284
  180DOPC  H15B24717   2.070  10.698   6.273 -0.6923  0.2169 -0.5153
  180DOPC  H15C24718   2.239  10.714   6.235  0.3938 -0.7369  0.1164
  180DOPC   C1124719   2.251  10.447   6.163 -0.6526 -0.4659  0.5013
  180DOPC  H11A24720   2.208  10.368   6.097 -0.2695 -0.6084  0.4200
  180DOPC  H11B24721   2.238  10.543   6.109  1.5255 -0.5649 -0.2804
  180DOPC     P24722   2.454  10.300   6.212  0.3210 -0.7301  0.4440
  180DOPC   O1324723   2.413  10.265   6.353  0.0117  0.4200 -0.2305
  180DOPC   O1424724   2.599  10.293   6.181 -0.3972  0.2759  0.0360
  180DOPC   O1224725   2.399  10.439   6.178  0.5913 -0.4057  0.3701
  180DOPC   O1124726   2.377  10.214   6.109  0.0511 -0.8053  0.6470
  180DOPC    C124727   2.408  10.079   6.100  0.0118  0.5533  0.0021
  180DOPC    HA24728   2.310  10.027   6.111 -0.9364  2.3374  0.3279
  180DOPC    HB24729   2.473  10.035   6.179 -2.2428 -1.4634  0.8755
  180DOPC    C224730   2.463  10.043   5.959  0.3810  1.1050  0.0630
  180DOPC    HS24731   2.465   9.935   5.930 -0.9926  1.2605 -0.6916
  180DOPC   O2124732   2.594  10.098   5.939 -0.1636  0.2898 -0.2899
  180DOPC   C2124733   2.695  10.031   5.999 -0.0906  0.8847 -0.4511
  180DOPC   O2224734   2.679   9.939   6.083  0.0968  0.2905  0.4165
  180DOPC   C2224735   2.835  10.087   5.969 -0.4271 -0.2964  0.1204
  180DOPC   H2R24736   2.918  10.029   6.014  1.3253 -0.0531 -2.5680
  180DOPC   H2S24737   2.842  10.189   6.012 -1.2618 -0.0251 -0.3688
  180DOPC    C324738   2.368  10.113   5.856 -0.3922  0.3546 -0.4708
  180DOPC    HX24739   2.365  10.223   5.873  2.4340  0.7407 -1.9282
  180DOPC    HY24740   2.267  10.071   5.879 -0.8929  1.0214 -1.3381
  180DOPC   O3124741   2.396  10.069   5.717  0.0106 -0.3588  0.2840
  180DOPC   C3124742   2.477  10.153   5.648 -0.0795  0.1365  0.4388
  180DOPC   O3224743   2.517  10.257   5.689 -0.2095 -0.3479 -0.3385
  180DOPC   C3224744   2.496  10.096   5.504  0.5627 -0.3396 -0.3591
  180DOPC   H2X24745   2.494   9.985   5.511 -0.6242 -0.3455 -0.5906
  180DOPC   H2Y24746   2.411  10.129   5.440  1.8731  1.8432 -1.0770
  180DOPC   C2324747   2.872  10.097   5.820  0.2437  0.6160  0.1667
  180DOPC   H3R24748   2.978  10.129   5.830 -0.1509  1.5675  1.6836
  180DOPC   H3S24749   2.815  10.178   5.771 -0.7974 -0.5579 -0.6225
  180DOPC   C2424750   2.866   9.971   5.724 -0.5060  0.2235  0.1532
  180DOPC   H4R24751   2.890  10.012   5.623 -2.4831 -0.5256 -0.6827
  180DOPC   H4S24752   2.762   9.934   5.705  0.0077 -0.3587 -1.7601
  180DOPC   C2524753   2.974   9.870   5.754 -0.4259  0.0328 -0.1442
  180DOPC   H5R24754   2.962   9.820   5.852  2.9159 -0.2699  0.2524
  180DOPC   H5S24755   3.071   9.925   5.758 -1.3273  1.6532  2.3087
  180DOPC   C2624756   2.994   9.766   5.640 -0.1346  0.1542  1.0236
  180DOPC   H6R24757   2.906   9.706   5.608 -0.5945 -0.9148  3.9502
  180DOPC   H6S24758   3.056   9.695   5.699  0.1366  0.4356  1.0793
  180DOPC   C2724759   3.076   9.824   5.526  0.4596  0.0616  0.0364
  180DOPC   H7R24760   3.173   9.862   5.566  1.2839 -2.2192  0.3942
  180DOPC   H7S24761   3.010   9.889   5.466  0.5675 -0.4076 -0.6065
  180DOPC   C2824762   3.119   9.709   5.432  0.6997 -0.1766 -0.1352
  180DOPC   H8R24763   3.147   9.764   5.340 -1.8193  0.0532 -0.8232
  180DOPC   H8S24764   3.022   9.658   5.415 -0.0105  1.0606  0.0640
  180DOPC   C2924765   3.219   9.616   5.487  0.4506  0.4385  0.7017
  180DOPC   H9R24766   3.198   9.582   5.589  3.8416  2.2350  2.1460
  180DOPC  C21024767   3.332   9.578   5.433 -0.0163 -0.3397 -0.0807
  180DOPC  H10R24768   3.401   9.514   5.491 -1.7880 -1.9874  0.3073
  180DOPC  C21124769   3.394   9.611   5.298  0.2394  1.0618  0.4760
  180DOPC  H11R24770   3.477   9.683   5.318  2.2393 -0.7166 -0.8585
  180DOPC  H11S24771   3.324   9.672   5.237 -0.3574 -0.3785 -0.3310
  180DOPC  C21224772   3.445   9.494   5.208  0.2420  0.0669 -0.0722
  180DOPC  H12R24773   3.521   9.439   5.267  2.8790  2.5665 -0.9140
  180DOPC  H12S24774   3.494   9.533   5.116  0.4451  0.1366  0.0640
  180DOPC  C21324775   3.340   9.404   5.151 -0.1380 -0.4859 -0.4344
  180DOPC  H13R24776   3.261   9.463   5.100  0.7862  1.6068  0.4480
  180DOPC  H13S24777   3.286   9.364   5.239  0.3403 -0.0502  0.0619
  180DOPC  C21424778   3.399   9.296   5.059  0.6178 -0.0721  1.0296
  180DOPC  H14R24779   3.449   9.221   5.124  0.3169 -0.8628  0.3618
  180DOPC  H14S24780   3.474   9.337   4.988 -1.7893  1.2597 -0.9201
  180DOPC  C21524781   3.290   9.219   4.977  0.3413 -0.2305  0.2355
  180DOPC  H15R24782   3.227   9.287   4.916 -1.9221 -1.9965  0.4689
  180DOPC  H15S24783   3.225   9.167   5.050 -1.1262  1.3986  0.1611
  180DOPC  C21624784   3.350   9.102   4.895 -0.3707 -0.0186 -0.1909
  180DOPC  H16R24785   3.268   9.030   4.875  1.2163 -2.3345  1.1477
  180DOPC  H16S24786   3.437   9.062   4.952  1.5754  1.1587 -2.1937
  180DOPC  C21724787   3.413   9.150   4.763  0.0658 -0.2287 -0.4005
  180DOPC  H17R24788   3.480   9.238   4.767 -1.2838  0.8450 -0.5037
  180DOPC  H17S24789   3.336   9.188   4.693 -1.2312 -0.5262  0.8139
  180DOPC  C21824790   3.490   9.035   4.699 -0.1983 -0.2222 -0.2036
  180DOPC  H18R24791   3.564   8.989   4.768 -0.1714  1.3039  0.8364
  180DOPC  H18S24792   3.550   9.068   4.611  0.5563 -0.0938  0.3535
  180DOPC  H18T24793   3.424   8.955   4.659 -1.2791  0.9663 -0.8938
  180DOPC   C3324794   2.618  10.158   5.432  0.5387  0.2867  0.1134
  180DOPC   H3X24795   2.710  10.140   5.491  0.4367 -1.6341 -0.2367
  180DOPC   H3Y24796   2.602  10.268   5.434  1.6786  0.4780 -0.6337
  180DOPC   C3424797   2.633  10.088   5.296 -0.0591 -0.1192  0.0409
  180DOPC   H4X24798   2.538  10.072   5.240 -0.9565 -1.1138  1.7444
  180DOPC   H4Y24799   2.660   9.986   5.331  0.2733 -0.3106 -0.7421
  180DOPC   C3524800   2.746  10.151   5.204  0.1705 -0.2382 -0.1593
  180DOPC   H5X24801   2.839  10.145   5.265  1.4870 -2.0281 -2.1990
  180DOPC   H5Y24802   2.713  10.252   5.174 -2.9727 -1.2757 -0.6084
  180DOPC   C3624803   2.779  10.078   5.073 -0.5199 -0.6552 -0.2768
  180DOPC   H6X24804   2.844  10.145   5.013 -1.1140  0.6453  0.5076
  180DOPC   H6Y24805   2.838   9.984   5.078  1.6011  0.6982  1.4077
  180DOPC   C3724806   2.663  10.060   4.982  0.1394  0.3046 -0.1899
  180DOPC   H7X24807   2.607   9.975   5.026  2.7431 -1.4114  0.0119
  180DOPC   H7Y24808   2.605  10.154   4.968 -3.9113 -1.7719  0.9731
  180DOPC   C3824809   2.710  10.014   4.842 -0.2036 -0.7806  0.0503
  180DOPC   H8X24810   2.783   9.931   4.851  0.2242 -0.6740 -1.8732
  180DOPC   H8Y24811   2.780  10.090   4.801 -0.2221  0.2465  1.8147
  180DOPC   C3924812   2.602   9.986   4.741  0.6347 -0.3736  0.5552
  180DOPC   H9X24813   2.499   9.998   4.778 -0.9155 -2.3202 -2.6240
  180DOPC  C31024814   2.621   9.959   4.610  0.1551 -0.1604  0.2104
  180DOPC  H10X24815   2.545   9.931   4.536  0.0484  0.2176  0.1743
  180DOPC  C31124816   2.763   9.961   4.540 -0.5602 -1.1487  0.7638
  180DOPC  H11X24817   2.847   9.992   4.606 -0.4818 -0.1057  0.1847
  180DOPC  H11Y24818   2.753  10.024   4.450  0.9150 -0.5482  1.0042
  180DOPC  C31224819   2.804   9.821   4.491 -0.2414  0.6625 -0.1197
  180DOPC  H12X24820   2.902   9.827   4.440  0.7150 -2.9910  1.0166
  180DOPC  H12Y24821   2.733   9.783   4.414 -0.0688  0.0169  0.0328
  180DOPC  C31324822   2.832   9.715   4.602  0.9754  0.9719 -0.1812
  180DOPC  H13X24823   2.894   9.633   4.561  0.5092 -0.7410  2.2904
  180DOPC  H13Y24824   2.903   9.768   4.669  2.1382 -1.5407  0.7159
  180DOPC  C31424825   2.719   9.640   4.665  0.1860 -0.0702 -0.1610
  180DOPC  H14X24826   2.669   9.711   4.736  2.0693  1.2313 -0.0722
  180DOPC  H14Y24827   2.629   9.617   4.603 -0.4676  0.9987  0.3449
  180DOPC  C31524828   2.774   9.522   4.742 -0.1611 -0.1485 -0.4525
  180DOPC  H15X24829   2.846   9.466   4.678  1.1822 -0.0275  0.9075
  180DOPC  H15Y24830   2.696   9.452   4.779  0.6653 -0.1161  1.4622
  180DOPC  C31624831   2.848   9.559   4.875  0.2318  0.2319  0.6854
  180DOPC  H16X24832   2.905   9.471   4.910  2.1437  2.2708  3.0900
  180DOPC  H16Y24833   2.921   9.634   4.839  1.6178 -1.2101  0.4081
  180DOPC  C31724834   2.769   9.605   4.997  0.0306 -0.0147 -0.1103
  180DOPC  H17X24835   2.695   9.683   4.968 -2.0000 -1.5610  0.6187
  180DOPC  H17Y24836   2.703   9.522   5.032  0.1717  0.2531  0.8086
  180DOPC  C31824837   2.848   9.675   5.114 -0.2730 -0.1131  0.1114
  180DOPC  H18X24838   2.860   9.778   5.077 -0.8943  1.4147  3.7054
  180DOPC  H18Y24839   2.793   9.684   5.211  4.8269  3.9973  3.1222
  180DOPC  H18Z24840   2.948   9.628   5.125  0.6349  1.7781  0.1714
  181DOPC     N24841   4.532  12.029   6.274  0.8047  0.2957  0.2744
  181DOPC   C1224842   4.573  11.964   6.139  0.6858 -0.5133 -0.4843
  181DOPC  H12A24843   4.521  11.870   6.128 -1.7001  0.7019 -0.1807
  181DOPC  H12B24844   4.680  11.951   6.138  0.4580 -3.1572  0.4022
  181DOPC   C1324845   4.389  12.059   6.276  0.1753 -1.0364 -0.0921
  181DOPC  H13A24846   4.366  12.126   6.194  2.0582 -0.9378 -0.5890
  181DOPC  H13B24847   4.329  11.973   6.249 -0.2193 -0.6733 -0.3797
  181DOPC  H13C24848   4.372  12.105   6.372 -1.7682 -1.5404 -0.1601
  181DOPC   C1424849   4.604  12.159   6.296 -0.1327 -0.0074  0.0067
  181DOPC  H14A24850   4.711  12.152   6.309  0.0662  0.8721 -1.0155
  181DOPC  H14B24851   4.591  12.226   6.212 -1.4998 -0.8375 -0.4665
  181DOPC  H14C24852   4.564  12.211   6.382  0.2946  0.3214  0.0150
  181DOPC   C1524853   4.568  11.924   6.383  0.0029 -0.1128 -0.1406
  181DOPC  H15A24854   4.673  11.902   6.386  0.3085  1.2169 -0.4323
  181DOPC  H15B24855   4.511  11.833   6.395 -0.7036  0.1459 -1.3280
  181DOPC  H15C24856   4.544  11.976   6.475 -0.5067  1.1498 -0.9594
  181DOPC   C1124857   4.538  12.049   6.011  0.7684  0.2861 -0.0615
  181DOPC  H11A24858   4.550  11.993   5.916  2.1252 -1.2513  0.9638
  181DOPC  H11B24859   4.430  12.071   6.018  0.8482  0.8536 -0.5770
  181DOPC     P24860   4.771  12.169   5.970  0.4969  0.3311  0.0194
  181DOPC   O1324861   4.830  12.036   6.002  0.2450  0.2615  0.2068
  181DOPC   O1424862   4.841  12.286   6.028 -0.5283  0.0219  0.1724
  181DOPC   O1224863   4.616  12.171   6.008 -0.2975 -0.4082  0.3633
  181DOPC   O1124864   4.774  12.174   5.806  0.3478  0.1672 -0.1478
  181DOPC    C124865   4.703  12.265   5.728 -0.3418 -0.0528  0.3693
  181DOPC    HA24866   4.761  12.331   5.661 -0.2177  0.7096  1.1980
  181DOPC    HB24867   4.649  12.340   5.790 -0.1499  0.2662  0.1534
  181DOPC    C224868   4.597  12.191   5.644 -0.4908  0.1992  0.3049
  181DOPC    HS24869   4.567  12.105   5.707  0.3116 -1.9094 -1.9939
  181DOPC   O2124870   4.656  12.154   5.515 -0.2316 -0.1996 -0.2288
  181DOPC   C2124871   4.711  12.027   5.526  0.2989  0.2922 -0.6954
  181DOPC   O2224872   4.715  11.957   5.626 -0.6054 -0.6004  0.3334
  181DOPC   C2224873   4.760  11.985   5.396 -0.1426 -0.3426 -0.0562
  181DOPC   H2R24874   4.806  11.885   5.404  0.6653  0.0223 -0.0129
  181DOPC   H2S24875   4.835  12.059   5.359  1.3363 -0.6972  2.0667
  181DOPC    C324876   4.472  12.277   5.610 -0.7064 -0.0343 -0.2434
  181DOPC    HX24877   4.505  12.359   5.543 -0.3731  0.1002  0.0800
  181DOPC    HY24878   4.437  12.334   5.699 -3.8781  1.3354 -2.1802
  181DOPC   O3124879   4.363  12.202   5.548 -0.1488 -0.6347 -0.2113
  181DOPC   C3124880   4.290  12.129   5.638  0.3824 -0.0804  0.0363
  181DOPC   O3224881   4.303  12.135   5.759 -0.0086 -0.2386 -1.0739
  181DOPC   C3224882   4.171  12.064   5.564  0.4648  0.3150  0.0767
  181DOPC   H2X24883   4.077  12.124   5.573 -0.6615 -1.4160  0.4044
  181DOPC   H2Y24884   4.197  12.057   5.456  1.8287 -1.1405  0.4788
  181DOPC   C2324885   4.649  11.968   5.286  0.3660  0.5416 -0.4052
  181DOPC   H3R24886   4.609  12.071   5.275 -0.2596  0.5186  1.3935
  181DOPC   H3S24887   4.573  11.899   5.330 -0.0646  1.6224  0.6028
  181DOPC   C2424888   4.706  11.908   5.161  0.2042  0.1862 -0.1738
  181DOPC   H4R24889   4.779  11.826   5.177 -1.4871 -1.0381  1.6438
  181DOPC   H4S24890   4.760  11.988   5.105 -1.0069  1.3308  0.2434
  181DOPC   C2524891   4.591  11.853   5.071 -0.3922  0.9962 -0.0064
  181DOPC   H5R24892   4.509  11.928   5.068 -1.7123 -0.3965 -1.3307
  181DOPC   H5S24893   4.542  11.760   5.108  1.4194  0.8674  2.2503
  181DOPC   C2624894   4.634  11.829   4.925  0.5471 -0.0020  0.1002
  181DOPC   H6R24895   4.728  11.772   4.912  0.0210 -1.1811  1.1838
  181DOPC   H6S24896   4.653  11.933   4.893  0.5786  0.1691  0.6538
  181DOPC   C2724897   4.520  11.764   4.851  0.4393  0.3185  0.6369
  181DOPC   H7R24898   4.439  11.840   4.855  0.5166  0.5292 -1.1699
  181DOPC   H7S24899   4.479  11.676   4.904 -1.9040  0.5212 -0.7236
  181DOPC   C2824900   4.544  11.745   4.701 -0.1436 -0.3926 -0.1979
  181DOPC   H8R24901   4.466  11.679   4.659  0.4217 -1.0838 -0.1881
  181DOPC   H8S24902   4.632  11.677   4.694  0.4332  0.3362 -0.0997
  181DOPC   C2924903   4.554  11.879   4.623  0.4590  0.9220  0.7817
  181DOPC   H9R24904   4.616  11.955   4.673  1.3288  0.7569 -0.0171
  181DOPC  C21024905   4.472  11.920   4.517 -1.3254  0.4810 -0.0731
  181DOPC  H10R24906   4.476  12.029   4.500  0.2031  0.8804  2.3104
  181DOPC  C21124907   4.365  11.837   4.450  0.5926 -0.2582 -0.1143
  181DOPC  H11R24908   4.352  11.744   4.510  1.5571  0.4966  1.3061
  181DOPC  H11S24909   4.397  11.811   4.347  1.2053  2.2404 -0.6148
  181DOPC  C21224910   4.221  11.906   4.440  0.4141  0.1363 -0.4358
  181DOPC  H12R24911   4.177  11.946   4.534 -1.8335  0.8985 -1.7219
  181DOPC  H12S24912   4.151  11.822   4.419  0.3480 -0.2085  1.0335
  181DOPC  C21324913   4.209  12.011   4.338 -0.1208  0.3540 -0.0562
  181DOPC  H13R24914   4.264  11.980   4.246  0.4265  1.5676 -0.1602
  181DOPC  H13S24915   4.271  12.094   4.377  2.1494 -0.9231 -0.7445
  181DOPC  C21424916   4.068  12.048   4.302  0.2287  0.3215 -0.1087
  181DOPC  H14R24917   4.030  12.120   4.377  0.8259 -0.3294  0.8427
  181DOPC  H14S24918   4.008  11.955   4.311 -0.1935  0.4273 -1.6591
  181DOPC  C21524919   4.058  12.105   4.163 -0.0995 -0.1170  0.3461
  181DOPC  H15R24920   4.105  12.044   4.082  0.2786  0.0885  0.4080
  181DOPC  H15S24921   4.118  12.199   4.162  0.3391 -0.3561 -1.9942
  181DOPC  C21624922   3.917  12.151   4.123 -0.4869  0.0811 -0.0075
  181DOPC  H16R24923   3.871  12.204   4.209  0.8381  1.9897 -0.3812
  181DOPC  H16S24924   3.860  12.059   4.101  1.4770 -0.4616 -3.6092
  181DOPC  C21724925   3.910  12.232   3.993  0.0735 -0.0729  0.4157
  181DOPC  H17R24926   3.948  12.182   3.901  1.2660  0.3339  0.6715
  181DOPC  H17S24927   3.973  12.323   3.999  0.4174 -0.3071  0.3702
  181DOPC  C21824928   3.770  12.272   3.957  0.6079 -0.0075 -0.1234
  181DOPC  H18R24929   3.693  12.198   3.987 -1.5082  1.4976 -1.5129
  181DOPC  H18S24930   3.764  12.285   3.846  3.1483 -0.9389 -0.4351
  181DOPC  H18T24931   3.748  12.366   4.013 -2.9196  1.1941 -3.1003
  181DOPC   C3324932   4.143  11.919   5.615  0.0283  0.6800 -0.7462
  181DOPC   H3X24933   4.069  11.870   5.549  0.9710  0.5391 -1.7204
  181DOPC   H3Y24934   4.107  11.927   5.720  0.8494  2.7562 -0.5673
  181DOPC   C3424935   4.272  11.830   5.604 -0.4845  0.2683  0.3276
  181DOPC   H4X24936   4.359  11.897   5.621 -0.4774  0.2548  0.3458
  181DOPC   H4Y24937   4.280  11.791   5.500 -2.0809  1.7056 -0.3773
  181DOPC   C3524938   4.282  11.725   5.718  0.2411  0.4626  0.0541
  181DOPC   H5X24939   4.202  11.648   5.724  0.3227  0.3761  0.0365
  181DOPC   H5Y24940   4.294  11.775   5.816  0.6980 -0.1472  0.3115
  181DOPC   C3624941   4.408  11.637   5.703 -0.3835  0.1040 -0.3115
  181DOPC   H6X24942   4.487  11.715   5.699  0.1799 -0.5049 -1.3888
  181DOPC   H6Y24943   4.409  11.584   5.801 -0.2709  0.9587  0.1596
  181DOPC   C3724944   4.418  11.543   5.580  0.1360  0.3187 -0.4321
  181DOPC   H7X24945   4.325  11.486   5.598 -1.2966  2.5947 -0.3190
  181DOPC   H7Y24946   4.407  11.591   5.481  2.1693 -0.7460 -1.2317
  181DOPC   C3824947   4.540  11.449   5.586  0.1178 -0.7702  0.2441
  181DOPC   H8X24948   4.521  11.364   5.517  0.5282  0.1300 -1.0138
  181DOPC   H8Y24949   4.561  11.407   5.686  1.8389  1.4749  0.9048
  181DOPC   C3924950   4.656  11.541   5.552  0.7961 -0.1810 -0.1838
  181DOPC   H9X24951   4.710  11.582   5.638  1.3536 -0.0408 -0.5952
  181DOPC  C31024952   4.709  11.580   5.433  0.3951 -0.6439  0.1433
  181DOPC  H10X24953   4.788  11.656   5.423 -0.2743  0.2755  1.5547
  181DOPC  C31124954   4.642  11.547   5.302 -0.5965 -0.2365 -0.0079
  181DOPC  H11X24955   4.599  11.639   5.257  2.5816  1.5008  0.2153
  181DOPC  H11Y24956   4.569  11.466   5.322 -0.7171  0.3928  2.3425
  181DOPC  C31224957   4.730  11.489   5.196  0.1994 -0.3456  0.3959
  181DOPC  H12X24958   4.669  11.483   5.103  1.0800 -1.4780 -0.1371
  181DOPC  H12Y24959   4.758  11.388   5.232 -0.2763 -0.3400  0.7854
  181DOPC  C31324960   4.854  11.566   5.160 -0.5836  0.7968  0.9406
  181DOPC  H13X24961   4.821  11.652   5.098  0.0081 -0.3490 -1.0414
  181DOPC  H13Y24962   4.899  11.606   5.253  1.0234 -1.0673  1.0287
  181DOPC  C31424963   4.955  11.493   5.066 -0.5763  0.4710  0.6608
  181DOPC  H14X24964   5.009  11.424   5.135 -0.7213 -1.2224 -0.8428
  181DOPC  H14Y24965   4.899  11.439   4.987 -0.5853  1.0031  0.3016
  181DOPC  C31524966   5.059  11.590   5.007  0.1433 -0.4170  0.6443
  181DOPC  H15X24967   5.119  11.639   5.086  1.0683  0.4902 -0.5917
  181DOPC  H15Y24968   5.003  11.678   4.967  0.6585 -0.6320 -0.6052
  181DOPC  C31624969   5.144  11.535   4.902 -0.5476 -0.0188  0.8894
  181DOPC  H16X24970   5.198  11.441   4.925  1.9645  0.5788 -1.9001
  181DOPC  H16Y24971   5.090  11.501   4.811  1.5667  0.3314 -0.5777
  181DOPC  C31724972   5.251  11.638   4.849  0.1317 -1.1355  0.3764
  181DOPC  H17X24973   5.197  11.723   4.802 -0.0413  0.3322  3.0191
  181DOPC  H17Y24974   5.303  11.672   4.941 -0.5955 -1.4870  0.9294
  181DOPC  C31824975   5.337  11.575   4.741 -0.3703 -0.0264  1.0477
  181DOPC  H18X24976   5.410  11.509   4.792 -1.2088 -1.5195  0.4085
  181DOPC  H18Y24977   5.271  11.525   4.667 -1.5958  1.0032  1.4007
  181DOPC  H18Z24978   5.388  11.655   4.682  0.4525 -1.1519  0.1795
  182DOPC     N24979   5.737   0.511   6.473 -0.6718 -0.1336 -0.7464
  182DOPC   C1224980   5.873   0.503   6.405 -0.2077  0.2985 -0.0192
  182DOPC  H12A24981   5.916   0.405   6.423 -2.3576 -0.4856  1.2452
  182DOPC  H12B24982   5.939   0.580   6.441  0.4185  0.0334 -0.5732
  182DOPC   C1324983   5.638   0.408   6.434  0.3279  0.1108  0.2474
  182DOPC  H13A24984   5.551   0.428   6.495 -1.3191  0.8803 -2.2276
  182DOPC  H13B24985   5.618   0.422   6.329 -0.8998 -0.8068  0.3352
  182DOPC  H13C24986   5.670   0.306   6.450 -0.4231 -0.3927 -1.2262
  182DOPC   C1424987   5.675   0.639   6.437  0.3386  0.0591  0.6055
  182DOPC  H14A24988   5.579   0.648   6.486 -0.2750  1.9330 -0.8071
  182DOPC  H14B24989   5.742   0.720   6.461  2.6114 -0.5620 -2.8320
  182DOPC  H14C24990   5.664   0.649   6.330  2.4208 -1.0078  0.2337
  182DOPC   C1524991   5.750   0.506   6.629  0.0597  0.5909  0.1951
  182DOPC  H15A24992   5.793   0.410   6.654  1.6889  1.2484  0.0382
  182DOPC  H15B24993   5.656   0.517   6.680 -0.2302  0.7475 -0.3680
  182DOPC  H15C24994   5.822   0.580   6.661  1.3623  0.2421 -1.7260
  182DOPC   C1124995   5.873   0.519   6.247  0.5560 -0.0752  0.5272
  182DOPC  H11A24996   5.967   0.478   6.204  0.5811  1.1355 -0.6485
  182DOPC  H11B24997   5.804   0.454   6.190 -1.5750  2.5537 -0.1176
  182DOPC     P24998   5.974   0.754   6.202 -0.2157 -0.2652  0.1437
  182DOPC   O1324999   6.045   0.748   6.329  0.0434  0.8158 -0.1063
  182DOPC   O1425000   5.924   0.888   6.159 -0.4115 -0.1820  0.3260
  182DOPC   O1225001   5.851   0.650   6.205 -0.0933  0.3220  0.3710
  182DOPC   O1125002   6.066   0.690   6.094 -0.5911 -0.6039  0.6562
  182DOPC    C125003   6.017   0.655   5.963 -0.6413 -0.1146  0.4699
  182DOPC    HA25004   6.097   0.680   5.890  0.6593 -0.3408  1.7522
  182DOPC    HB25005   5.927   0.713   5.935 -1.1331 -1.1599 -0.2051
  182DOPC    C225006   5.991   0.505   5.943  0.2215  0.6169  0.2711
  182DOPC    HS25007   5.897   0.486   6.000  0.8436  1.3850  1.5934
  182DOPC   O2125008   6.102   0.422   5.986  0.4296 -0.1257 -0.1014
  182DOPC   C2125009   6.056   0.301   6.024  0.6094  0.2317  0.1300
  182DOPC   O2225010   5.935   0.271   6.031  0.4264 -0.9224  0.1106
  182DOPC   C2225011   6.181   0.211   6.050  0.8409 -0.3300  0.1725
  182DOPC   H2R25012   6.188   0.195   6.160  1.0796 -0.2589  0.1682
  182DOPC   H2S25013   6.276   0.258   6.017  1.4773 -0.9396  1.1051
  182DOPC    C325014   5.949   0.472   5.794 -0.3543 -0.7514  0.1659
  182DOPC    HX25015   5.902   0.372   5.788 -0.2696 -0.7246 -1.6865
  182DOPC    HY25016   6.049   0.479   5.745  0.8959 -0.1178  2.6557
  182DOPC   O3125017   5.861   0.574   5.743 -0.3349 -0.2591  0.5102
  182DOPC   C3125018   5.731   0.570   5.784 -0.0738  0.0423  0.2648
  182DOPC   O3225019   5.693   0.498   5.869  0.1236 -0.3695 -0.2365
  182DOPC   C3225020   5.650   0.665   5.694 -0.4473  0.2081 -0.3177
  182DOPC   H2X25021   5.616   0.752   5.756 -2.6243 -0.7212 -0.1093
  182DOPC   H2Y25022   5.720   0.703   5.617  3.2459 -3.4441  0.8623
  182DOPC   C2325023   6.176   0.071   5.989  0.7739 -0.7000 -0.5136
  182DOPC   H3R25024   6.081   0.021   6.018 -1.0907  1.7147 -2.1341
  182DOPC   H3S25025   6.261   0.015   6.036  1.3654 -0.1787 -0.9432
  182DOPC   C2425026   6.202   0.064   5.839 -0.2006  0.6819  0.2604
  182DOPC   H4R25027   6.243  -0.036   5.815 -2.0425 -0.2330  0.7743
  182DOPC   H4S25028   6.293   0.123   5.815 -0.8283  0.9522 -1.5801
  182DOPC   C2525029   6.085   0.094   5.746 -0.4107 -0.2671  0.4108
  182DOPC   H5R25030   6.047   0.198   5.752 -1.9228 -0.8656  2.2479
  182DOPC   H5S25031   5.999   0.033   5.779  1.0855 -2.4668  0.4671
  182DOPC   C2625032   6.112   0.052   5.599 -0.1595  0.0211 -0.1058
  182DOPC   H6R25033   6.139  -0.056   5.605 -0.2405  0.0810  2.3107
  182DOPC   H6S25034   6.207   0.099   5.566 -0.9164  1.7093  0.0579
  182DOPC   C2725035   5.995   0.078   5.506 -0.5141  0.2992  0.4746
  182DOPC   H7R25036   5.988   0.188   5.490 -0.1502  0.0118 -2.1511
  182DOPC   H7S25037   5.894   0.049   5.541 -1.1119 -0.3452 -1.6033
  182DOPC   C2825038   5.996   0.002   5.368  0.2759  0.6638  0.2321
  182DOPC   H8R25039   5.901   0.028   5.317  0.8414 -0.1874 -1.3020
  182DOPC   H8S25040   5.998  -0.109   5.379  2.0470  0.3998 -2.2057
  182DOPC   C2925041   6.109   0.027   5.278  1.1137  0.5734  0.3525
  182DOPC   H9R25042   6.203   0.066   5.320  1.9473  0.2869 -1.1590
  182DOPC  C21025043   6.099   0.017   5.150  0.1515  0.1454 -0.0398
  182DOPC  H10R25044   6.188   0.051   5.094  0.7122 -1.2702 -0.0407
  182DOPC  C21125045   5.984  -0.036   5.065  0.2974 -0.2445  0.0821
  182DOPC  H11R25046   5.893  -0.050   5.128  0.9900 -0.4534  1.0642
  182DOPC  H11S25047   6.012  -0.137   5.028 -1.8944 -0.1435 -2.0756
  182DOPC  C21225048   5.940   0.049   4.938 -0.1368 -0.4369 -1.5406
  182DOPC  H12R25049   6.030   0.039   4.873  1.4539  0.5087  0.4002
  182DOPC  H12S25050   5.925   0.157   4.957  0.0023 -0.8736  1.5911
  182DOPC  C21325051   5.820  -0.013   4.874 -0.8459 -0.4650 -0.3244
  182DOPC  H13R25052   5.743  -0.022   4.953  0.7470 -0.5030  1.2727
  182DOPC  H13S25053   5.855  -0.111   4.835  1.5859  0.9333 -1.9318
  182DOPC  C21425054   5.759   0.075   4.768 -0.0343  0.1334 -0.5047
  182DOPC  H14R25055   5.731   0.176   4.806 -0.1603  0.2956 -1.0253
  182DOPC  H14S25056   5.662   0.031   4.736 -1.3061  1.4334  1.3475
  182DOPC  C21525057   5.849   0.090   4.642 -0.1323  0.3879  0.4691
  182DOPC  H15R25058   5.885  -0.010   4.613  0.1329  0.7728 -0.5690
  182DOPC  H15S25059   5.942   0.143   4.674  0.6522  0.1371 -1.3122
  182DOPC  C21625060   5.777   0.160   4.527 -0.0836  0.3588  0.5521
  182DOPC  H16R25061   5.666   0.149   4.530 -0.0581 -1.2905 -1.8529
  182DOPC  H16S25062   5.815   0.115   4.433  0.9595 -2.0160  2.0368
  182DOPC  C21725063   5.802   0.313   4.526 -0.2674 -0.1039 -0.4855
  182DOPC  H17R25064   5.904   0.338   4.490  0.5823 -0.5311  1.4455
  182DOPC  H17S25065   5.795   0.350   4.631 -0.6901  0.4931 -0.7170
  182DOPC  C21825066   5.708   0.399   4.442  0.4556 -0.1995  0.8469
  182DOPC  H18R25067   5.703   0.363   4.337 -0.2017 -1.4505  1.2858
  182DOPC  H18S25068   5.723   0.507   4.463 -0.1832  0.1697 -0.4871
  182DOPC  H18T25069   5.599   0.394   4.464  0.0910  1.3012 -0.3981
  182DOPC   C3325070   5.532   0.594   5.627  0.0274  0.1223  0.1677
  182DOPC   H3X25071   5.485   0.673   5.565  0.7970 -0.3341 -1.0401
  182DOPC   H3Y25072   5.465   0.547   5.701 -0.5048  1.1770  0.3734
  182DOPC   C3425073   5.581   0.484   5.528 -0.6863 -0.2097  0.2143
  182DOPC   H4X25074   5.638   0.403   5.579 -0.8377 -1.4357 -1.4525
  182DOPC   H4Y25075   5.639   0.529   5.445 -1.4402  0.0368 -0.1898
  182DOPC   C3525076   5.459   0.418   5.455 -0.2555 -0.3886 -0.3169
  182DOPC   H5X25077   5.407   0.502   5.405 -0.9453 -0.2481  0.6013
  182DOPC   H5Y25078   5.396   0.376   5.536  2.6128 -0.8109  1.8699
  182DOPC   C3625079   5.495   0.312   5.353  0.2581  0.2584 -0.0305
  182DOPC   H6X25080   5.565   0.240   5.400  0.3980  0.1647 -0.3734
  182DOPC   H6Y25081   5.402   0.253   5.340  0.5691 -0.2307 -0.0751
  182DOPC   C3725082   5.540   0.374   5.222  0.2086 -0.2483  0.0826
  182DOPC   H7X25083   5.464   0.446   5.185 -0.2753 -1.8199 -2.1428
  182DOPC   H7Y25084   5.625   0.437   5.257  0.2992 -0.6881  0.6528
  182DOPC   C3825085   5.578   0.270   5.121  0.0136  0.0989 -0.2404
  182DOPC   H8X25086   5.485   0.216   5.096  1.0997 -2.1129  0.2500
  182DOPC   H8Y25087   5.650   0.201   5.170 -0.7695 -2.2116 -2.1451
  182DOPC   C3925088   5.638   0.350   5.010  0.4611 -0.4850  0.1383
  182DOPC   H9X25089   5.741   0.378   5.037  0.5366  0.9037 -1.3977
  182DOPC  C31025090   5.578   0.391   4.895 -1.7611 -0.0380 -0.0530
  182DOPC  H10X25091   5.639   0.454   4.828  0.8159 -0.7410  1.5218
  182DOPC  C31125092   5.443   0.344   4.854 -0.0675 -0.1274 -0.0386
  182DOPC  H11X25093   5.366   0.360   4.932  1.2863 -2.8677  2.0604
  182DOPC  H11Y25094   5.451   0.234   4.837  2.7245 -0.1913  1.1471
  182DOPC  C31225095   5.400   0.393   4.712  0.3381  0.3352 -0.5551
  182DOPC  H12X25096   5.302   0.344   4.693  1.0493 -0.6144 -2.0231
  182DOPC  H12Y25097   5.476   0.367   4.635  2.8038 -0.5712  2.0215
  182DOPC  C31325098   5.375   0.545   4.707  0.1649  0.4055 -0.4782
  182DOPC  H13X25099   5.337   0.595   4.799  1.8633  2.7360 -0.9342
  182DOPC  H13Y25100   5.472   0.598   4.691  0.1875  1.2719  2.0873
  182DOPC  C31425101   5.283   0.578   4.590  0.0578 -0.8792  0.2035
  182DOPC  H14X25102   5.334   0.540   4.499 -0.0970 -0.3949 -0.0930
  182DOPC  H14Y25103   5.195   0.513   4.606  0.3834 -1.5336 -0.5598
  182DOPC  C31525104   5.254   0.725   4.584  0.9432 -0.9979  0.6209
  182DOPC  H15X25105   5.352   0.776   4.577  0.9576 -1.0611  0.3319
  182DOPC  H15Y25106   5.201   0.749   4.678  0.2827 -0.6727  0.1756
  182DOPC  C31625107   5.165   0.760   4.461 -0.3437  0.7545  0.3755
  182DOPC  H16X25108   5.173   0.684   4.380  1.0687  0.4089  0.8245
  182DOPC  H16Y25109   5.059   0.776   4.489 -0.7970  0.8485 -1.2664
  182DOPC  C31725110   5.196   0.891   4.403 -0.3047  0.0829  0.1442
  182DOPC  H17X25111   5.175   0.976   4.471 -0.8019 -0.6199  0.8802
  182DOPC  H17Y25112   5.305   0.893   4.379 -0.4177 -1.1596 -0.5393
  182DOPC  C31825113   5.120   0.926   4.270 -0.1775 -0.9212  0.2166
  182DOPC  H18X25114   5.011   0.914   4.288 -0.6336  2.4304  0.3855
  182DOPC  H18Y25115   5.139   1.029   4.234  1.2604 -0.4840  2.0463
  182DOPC  H18Z25116   5.157   0.866   4.184  2.0735  0.4828  0.1128
  183DOPC     N25117  11.155   6.122   5.385  0.0461  0.1893  0.6632
  183DOPC   C1225118  11.230   6.024   5.290 -0.6291 -0.5226  0.4892
  183DOPC  H12A25119  11.172   5.993   5.204  1.1317 -2.5224 -0.0621
  183DOPC  H12B25120  11.261   5.940   5.350  1.3691  0.0856  0.3688
  183DOPC   C1325121  11.212   6.132   5.520 -0.3791  0.1075  0.6911
  183DOPC  H13A25122  11.212   6.037   5.573  2.0850 -0.6036 -0.4259
  183DOPC  H13B25123  11.316   6.162   5.519 -0.5046  0.5519 -0.6105
  183DOPC  H13C25124  11.150   6.194   5.583  1.2729  0.6861  1.8137
  183DOPC   C1425125  11.018   6.068   5.392 -0.7288  0.6175  0.0932
  183DOPC  H14A25126  10.967   6.147   5.445  1.0815  1.8778  0.0686
  183DOPC  H14B25127  10.967   6.055   5.298 -1.7108 -2.2248  0.9027
  183DOPC  H14C25128  11.019   5.975   5.447  0.6917  0.0684 -0.7873
  183DOPC   C1525129  11.136   6.266   5.324  0.3005  0.5219  1.0922
  183DOPC  H15A25130  11.063   6.274   5.245 -1.1412 -1.2374  2.1570
  183DOPC  H15B25131  11.235   6.298   5.297  1.0042 -1.8240  0.6249
  183DOPC  H15C25132  11.100   6.330   5.403  0.2094 -0.3779  1.7954
  183DOPC   C1125133  11.366   6.084   5.232 -1.2114  0.3650 -0.5876
  183DOPC  H11A25134  11.401   6.004   5.162  1.0942  0.3846  0.4561
  183DOPC  H11B25135  11.347   6.177   5.175  0.9935  0.3531 -1.4304
  183DOPC     P25136  11.530   6.015   5.430 -0.0793 -0.1008  0.0529
  183DOPC   O1325137  11.454   5.890   5.418  0.0296 -0.3763 -0.0702
  183DOPC   O1425138  11.532   6.088   5.558 -0.7547 -0.4248 -0.1982
  183DOPC   O1225139  11.469   6.116   5.323 -0.0120 -0.0654 -0.5984
  183DOPC   O1125140  11.681   5.988   5.390  0.6442 -0.8073 -0.3612
  183DOPC    C125141  11.714   5.919   5.271  0.4088 -0.1143  0.4270
  183DOPC    HA25142  11.620   5.897   5.215  0.9144  2.2425 -1.5038
  183DOPC    HB25143  11.771   5.825   5.285 -0.9464 -1.0241  0.0071
  183DOPC    C225144  11.802   6.010   5.184 -0.0367 -0.4787 -0.6542
  183DOPC    HS25145  11.878   6.059   5.249  0.0043 -0.6459 -0.5755
  183DOPC   O2125146  11.725   6.108   5.114 -0.1596  0.1539  0.0803
  183DOPC   C2125147  11.797   6.190   5.028 -0.2102  0.3791  0.3577
  183DOPC   O2225148  11.915   6.220   5.049  0.5888  0.5863  0.0656
  183DOPC   C2225149  11.700   6.250   4.920 -1.1445 -0.5228 -0.2148
  183DOPC   H2R25150  11.603   6.276   4.968 -0.7327  1.1220 -0.2009
  183DOPC   H2S25151  11.674   6.177   4.841 -0.9299  0.2334 -1.0072
  183DOPC    C325152  11.881   5.918   5.087 -0.3866 -0.0598 -0.0282
  183DOPC    HX25153  11.949   5.861   5.155 -1.5994  0.2601  1.5150
  183DOPC    HY25154  11.936   5.973   5.008  0.3679 -2.3523 -1.1714
  183DOPC   O3125155  11.798   5.814   5.035 -0.1672 -0.2855 -0.3448
  183DOPC   C3125156  11.769   5.829   4.907 -0.1450  0.1831 -0.1516
  183DOPC   O3225157  11.788   5.929   4.839 -0.5068 -0.1620 -0.2700
  183DOPC   C3225158  11.725   5.693   4.849 -0.1378 -0.4168 -0.1853
  183DOPC   H2X25159  11.793   5.607   4.869 -0.1543 -0.8213 -1.7122
  183DOPC   H2Y25160  11.627   5.677   4.899  0.3916  1.0953  1.4296
  183DOPC   C2325161  11.768   6.372   4.858 -0.1886 -0.4561  0.5571
  183DOPC   H3R25162  11.861   6.338   4.808  0.7627  0.0115  1.9597
  183DOPC   H3S25163  11.795   6.443   4.939  0.4841  0.5662 -0.5146
  183DOPC   C2425164  11.677   6.443   4.750  0.4662  0.5828  0.8132
  183DOPC   H4R25165  11.719   6.543   4.727  0.6106  0.4531  0.5174
  183DOPC   H4S25166  11.580   6.462   4.802  0.8136  2.9354  0.7094
  183DOPC   C2525167  11.661   6.366   4.614 -0.4995 -0.0124  0.0158
  183DOPC   H5R25168  11.593   6.284   4.648  0.8827 -0.7231  1.1828
  183DOPC   H5S25169  11.759   6.332   4.573 -0.2496  1.7619 -0.9532
  183DOPC   C2625170  11.599   6.435   4.499 -0.7480 -0.4572  0.0103
  183DOPC   H6R25171  11.579   6.352   4.428 -1.0515 -2.7001  2.5454
  183DOPC   H6S25172  11.672   6.507   4.457 -1.1928  0.6046  0.9883
  183DOPC   C2725173  11.468   6.514   4.529 -0.2272  0.8201 -0.1848
  183DOPC   H7R25174  11.496   6.606   4.585 -2.4406  0.7902  1.0924
  183DOPC   H7S25175  11.392   6.459   4.589  0.7653 -0.2017  0.1467
  183DOPC   C2825176  11.402   6.580   4.406  0.8497  0.2299  0.0626
  183DOPC   H8R25177  11.393   6.506   4.323  1.5189  2.9003 -2.6092
  183DOPC   H8S25178  11.462   6.662   4.362 -0.3545 -0.2466 -2.6858
  183DOPC   C2925179  11.260   6.631   4.431 -0.0639 -0.2453 -0.9275
  183DOPC   H9R25180  11.241   6.684   4.526 -0.3812 -1.4150 -0.3094
  183DOPC  C21025181  11.150   6.591   4.360 -0.5223  0.5673  0.0571
  183DOPC  H10R25182  11.054   6.625   4.401 -1.2973 -1.3407 -0.0852
  183DOPC  C21125183  11.140   6.491   4.251 -0.6987 -0.2795  0.0078
  183DOPC  H11R25184  11.172   6.393   4.294 -0.7990 -0.4513 -0.2998
  183DOPC  H11S25185  11.218   6.505   4.173  0.5787 -1.6929  0.9385
  183DOPC  C21225186  11.006   6.464   4.186  0.2577 -0.2627 -0.1941
  183DOPC  H12R25187  10.933   6.451   4.269  0.4818 -3.5411 -0.4087
  183DOPC  H12S25188  11.009   6.370   4.127  0.9625 -0.3873  0.0292
  183DOPC  C21325189  10.964   6.586   4.094 -0.2219  0.0649 -0.0978
  183DOPC  H13R25190  11.057   6.643   4.071 -0.1239 -0.5143 -1.2234
  183DOPC  H13S25191  10.884   6.644   4.144  1.2458  0.9578  1.3281
  183DOPC  C21425192  10.909   6.537   3.961 -0.0330 -0.1580  0.6638
  183DOPC  H14R25193  10.819   6.473   3.975  0.9294 -1.2919  2.0369
  183DOPC  H14S25194  10.993   6.485   3.910 -0.0417 -0.4127  0.9016
  183DOPC  C21525195  10.870   6.648   3.855  0.1347 -0.3657 -0.7063
  183DOPC  H15R25196  10.963   6.673   3.800 -0.0953  1.5907 -0.2717
  183DOPC  H15S25197  10.830   6.741   3.901 -0.8871 -0.6889 -0.9169
  183DOPC  C21625198  10.777   6.600   3.750  0.5782  0.0181  0.1564
  183DOPC  H16R25199  10.675   6.610   3.793 -0.0500  1.7818 -1.5986
  183DOPC  H16S25200  10.802   6.494   3.733  0.8096  0.2589 -1.0806
  183DOPC  C21725201  10.781   6.670   3.612 -0.1138  0.7039 -0.2515
  183DOPC  H17R25202  10.887   6.686   3.582  0.2707 -1.7318 -0.3279
  183DOPC  H17S25203  10.758   6.778   3.624  1.8780  1.1013  0.3909
  183DOPC  C21825204  10.711   6.606   3.492 -0.7455  0.4772  0.0985
  183DOPC  H18R25205  10.757   6.645   3.399  1.5208  0.6286  1.2273
  183DOPC  H18S25206  10.602   6.631   3.495 -2.1489 -3.8933 -3.1200
  183DOPC  H18T25207  10.725   6.496   3.478  1.0277  0.7699 -0.5903
  183DOPC   C3325208  11.703   5.705   4.696 -0.1331  0.4767 -0.3253
  183DOPC   H3X25209  11.797   5.730   4.642 -0.9635  0.4127 -1.8725
  183DOPC   H3Y25210  11.638   5.793   4.678  0.0262  0.4912 -0.8539
  183DOPC   C3425211  11.631   5.584   4.620 -0.0137  0.3421  0.4726
  183DOPC   H4X25212  11.672   5.488   4.657  1.3156  0.7441  0.1077
  183DOPC   H4Y25213  11.658   5.591   4.512 -0.9732 -1.8634  0.0584
  183DOPC   C3525214  11.478   5.578   4.620  0.0174 -0.8237  0.1737
  183DOPC   H5X25215  11.438   5.681   4.614 -2.2519 -1.7273 -1.5144
  183DOPC   H5Y25216  11.450   5.538   4.720 -2.5433 -0.2990 -0.2794
  183DOPC   C3625217  11.419   5.499   4.493 -0.0681 -0.0570 -0.0873
  183DOPC   H6X25218  11.323   5.549   4.470  0.6011  2.4672  2.1529
  183DOPC   H6Y25219  11.481   5.525   4.404 -2.5291  2.4395 -1.2272
  183DOPC   C3725220  11.433   5.342   4.495  0.8604 -0.4737  0.0329
  183DOPC   H7X25221  11.540   5.322   4.517  0.7808 -1.5070 -0.4562
  183DOPC   H7Y25222  11.383   5.303   4.586  0.2630  0.4369  0.1092
  183DOPC   C3825223  11.405   5.260   4.377 -0.9812  0.4968  0.6952
  183DOPC   H8X25224  11.452   5.164   4.407 -1.3414  0.5659  1.5177
  183DOPC   H8Y25225  11.453   5.308   4.290 -1.7415  0.7633  0.4070
  183DOPC   C3925226  11.259   5.240   4.359 -0.4395 -0.2333  0.2592
  183DOPC   H9X25227  11.199   5.198   4.442 -0.7926 -0.1439  0.0511
  183DOPC  C31025228  11.186   5.271   4.249  0.3256  0.3801  0.1568
  183DOPC  H10X25229  11.079   5.245   4.240 -0.1013  2.1162 -0.0382
  183DOPC  C31125230  11.244   5.356   4.133 -0.5082  0.2619  0.7130
  183DOPC  H11X25231  11.341   5.404   4.158 -1.0937  0.5641  2.6121
  183DOPC  H11Y25232  11.173   5.436   4.103  0.6783  0.2424 -2.4669
  183DOPC  C31225233  11.256   5.289   3.999 -1.2077 -0.4363  0.0410
  183DOPC  H12X25234  11.333   5.209   4.005 -1.4760 -0.6437  0.8091
  183DOPC  H12Y25235  11.295   5.374   3.939 -3.4444  0.9002  0.3869
  183DOPC  C31325236  11.131   5.231   3.933 -0.3200  0.1104  0.1796
  183DOPC  H13X25237  11.086   5.155   3.999 -1.4150  2.1154  1.8496
  183DOPC  H13Y25238  11.060   5.315   3.912 -0.1040  0.6164  1.3923
  183DOPC  C31425239  11.152   5.159   3.798  0.1311  0.2928 -0.7527
  183DOPC  H14X25240  11.055   5.143   3.745  1.1822 -0.4208 -2.5322
  183DOPC  H14Y25241  11.218   5.217   3.731  1.0759 -0.8376 -0.8437
  183DOPC  C31525242  11.215   5.022   3.818  0.5709  0.1408  0.3084
  183DOPC  H15X25243  11.149   4.970   3.890  1.0456 -0.6279  0.1971
  183DOPC  H15Y25244  11.317   5.026   3.861  1.1843 -0.3113 -1.0407
  183DOPC  C31625245  11.216   4.928   3.694  0.4154  0.5065 -0.5062
  183DOPC  H16X25246  11.112   4.896   3.674  1.2567 -1.6350 -1.8477
  183DOPC  H16Y25247  11.265   4.985   3.611  1.3689 -1.5665 -1.4545
  183DOPC  C31725248  11.293   4.800   3.718  0.6939 -0.6319 -0.7638
  183DOPC  H17X25249  11.401   4.825   3.728  0.4944  0.6678 -1.6511
  183DOPC  H17Y25250  11.264   4.756   3.816  4.6237 -1.3413  0.2300
  183DOPC  C31825251  11.283   4.694   3.613 -0.3401 -0.0609  0.2142
  183DOPC  H18X25252  11.180   4.653   3.614 -0.7868  0.9880 -0.5496
  183DOPC  H18Y25253  11.296   4.749   3.518 -0.6049  1.1532  0.8656
  183DOPC  H18Z25254  11.365   4.619   3.617 -1.2554 -1.0836  0.2022
  184DOPC     N25255   5.909   1.553   6.505 -0.0587  0.6577  0.3655
  184DOPC   C1225256   5.773   1.571   6.460 -0.8866 -0.1380 -0.7445
  184DOPC  H12A25257   5.774   1.579   6.352  1.4880  0.1543 -0.7559
  184DOPC  H12B25258   5.726   1.662   6.496 -0.4093  0.1891 -0.9311
  184DOPC   C1325259   5.991   1.668   6.432  0.3415  0.0216 -0.0127
  184DOPC  H13A25260   6.090   1.679   6.474  0.4732 -1.9984  0.3294
  184DOPC  H13B25261   5.994   1.648   6.326  0.0819 -1.4466  0.2279
  184DOPC  H13C25262   5.936   1.759   6.450  0.6128  0.6391 -2.1129
  184DOPC   C1425263   5.975   1.421   6.466  0.8568  0.1628 -0.0857
  184DOPC  H14A25264   6.073   1.413   6.510 -0.0138 -2.7840  1.5585
  184DOPC  H14B25265   5.914   1.342   6.505 -0.3764  0.9898 -0.2958
  184DOPC  H14C25266   5.974   1.413   6.358  1.2025  0.2910 -0.1030
  184DOPC   C1525267   5.932   1.570   6.648  0.2918  0.0918 -0.1085
  184DOPC  H15A25268   5.877   1.489   6.694  0.9191 -0.2499  0.0444
  184DOPC  H15B25269   5.889   1.664   6.682  0.2039  0.2278 -0.5930
  184DOPC  H15C25270   6.036   1.550   6.670  0.6293  0.4465 -1.3070
  184DOPC   C1125271   5.670   1.463   6.511 -0.2575 -0.7940 -0.2451
  184DOPC  H11A25272   5.667   1.468   6.622  0.0699 -0.5061 -0.2479
  184DOPC  H11B25273   5.571   1.493   6.472 -1.8184 -1.5717  2.7507
  184DOPC     P25274   5.646   1.265   6.340 -0.1944 -0.2983  0.2137
  184DOPC   O1325275   5.499   1.269   6.345  0.0234  0.3241 -0.0465
  184DOPC   O1425276   5.716   1.134   6.332 -0.5379  0.5950 -0.5293
  184DOPC   O1225277   5.703   1.332   6.471  0.6947 -0.4245 -0.0882
  184DOPC   O1125278   5.710   1.358   6.231 -0.2247 -0.2490  0.7452
  184DOPC    C125279   5.638   1.445   6.151  0.0584 -0.4379  0.6758
  184DOPC    HA25280   5.721   1.502   6.103 -0.0759 -1.0179 -0.2855
  184DOPC    HB25281   5.582   1.519   6.212 -1.7729 -1.6092  0.4761
  184DOPC    C225282   5.555   1.376   6.043  0.2613 -0.8063  0.5710
  184DOPC    HS25283   5.462   1.353   6.100 -0.4852  0.0012 -0.2823
  184DOPC   O2125284   5.634   1.262   5.998 -0.3429 -0.4429 -0.6568
  184DOPC   C2125285   5.580   1.174   5.928  1.2537  0.6002 -0.5553
  184DOPC   O2225286   5.462   1.143   5.912 -0.4195  0.0979 -0.1672
  184DOPC   C2225287   5.704   1.108   5.858 -0.5959 -0.0208  0.2249
  184DOPC   H2R25288   5.677   1.003   5.832  1.0603 -0.3569 -0.2655
  184DOPC   H2S25289   5.782   1.101   5.936 -0.4396 -1.9761 -0.0540
  184DOPC    C325290   5.518   1.478   5.924 -0.3791  0.5449 -0.5514
  184DOPC    HX25291   5.616   1.512   5.887 -0.4457  0.3758 -0.8917
  184DOPC    HY25292   5.473   1.572   5.963 -1.2665 -0.8608  2.1366
  184DOPC   O3125293   5.441   1.426   5.811  0.4031  0.3303  0.1378
  184DOPC   C3125294   5.316   1.391   5.831  0.1029 -0.3343 -1.0592
  184DOPC   O3225295   5.260   1.396   5.944 -0.3115 -0.3460 -0.0113
  184DOPC   C3225296   5.247   1.352   5.697 -0.7223 -0.2491  0.0133
  184DOPC   H2X25297   5.328   1.349   5.621 -0.5366  0.2605  0.1792
  184DOPC   H2Y25298   5.199   1.253   5.700 -0.3011 -0.4396  1.6023
  184DOPC   C2325299   5.756   1.173   5.728 -0.4642 -0.5613  0.3799
  184DOPC   H3R25300   5.847   1.123   5.689 -1.0027 -0.2435 -1.3567
  184DOPC   H3S25301   5.781   1.276   5.762 -0.4356 -0.0597 -1.1009
  184DOPC   C2425302   5.649   1.172   5.622 -0.6247 -0.7690 -0.5966
  184DOPC   H4R25303   5.673   1.257   5.554 -0.4906 -0.8154 -0.6083
  184DOPC   H4S25304   5.551   1.213   5.655 -1.6494 -1.3729 -2.7229
  184DOPC   C2525305   5.647   1.045   5.542 -0.3778 -0.5886 -0.6436
  184DOPC   H5R25306   5.582   0.979   5.604 -0.1081 -1.3547 -1.1482
  184DOPC   H5S25307   5.750   1.006   5.529 -0.5953 -0.8530 -1.7343
  184DOPC   C2625308   5.585   1.049   5.399 -0.2854  0.2017  0.5829
  184DOPC   H6R25309   5.640   1.118   5.332 -0.6276 -1.4625 -1.5206
  184DOPC   H6S25310   5.480   1.086   5.405  0.0996  1.2273  1.2232
  184DOPC   C2725311   5.581   0.910   5.332  0.2260 -0.1180  0.0992
  184DOPC   H7R25312   5.520   0.839   5.392 -1.7185  0.4266 -1.1393
  184DOPC   H7S25313   5.685   0.873   5.343  0.2458 -1.0524 -2.4585
  184DOPC   C2825314   5.536   0.908   5.187 -0.2747  0.0620  0.4710
  184DOPC   H8R25315   5.584   0.996   5.140  1.1560 -0.9963 -0.1461
  184DOPC   H8S25316   5.427   0.924   5.181 -0.4476 -0.7595  1.1902
  184DOPC   C2925317   5.564   0.780   5.115 -0.2865  0.5410  0.0584
  184DOPC   H9R25318   5.489   0.703   5.135  0.6649 -0.6432 -0.8224
  184DOPC  C21025319   5.659   0.754   5.022  0.3743 -0.5502 -0.5028
  184DOPC  H10R25320   5.665   0.654   4.976 -0.6027 -0.4107 -0.9735
  184DOPC  C21125321   5.763   0.859   4.982  0.6349  0.5774 -0.5683
  184DOPC  H11R25322   5.865   0.815   4.987 -0.1334 -1.1362  2.3374
  184DOPC  H11S25323   5.770   0.946   5.051 -0.1318  0.2265 -0.0305
  184DOPC  C21225324   5.735   0.913   4.836  0.1097  0.2168 -0.8668
  184DOPC  H12R25325   5.793   1.007   4.828 -1.0339  1.0310  0.0028
  184DOPC  H12S25326   5.626   0.932   4.825 -0.0564  0.8932  1.3644
  184DOPC  C21325327   5.779   0.823   4.730  0.3936  0.3396  0.2240
  184DOPC  H13R25328   5.705   0.744   4.705 -0.2537  0.8065  0.6289
  184DOPC  H13S25329   5.865   0.762   4.765  0.0332  0.3052  1.0709
  184DOPC  C21425330   5.800   0.896   4.596  0.2535 -0.4331 -0.6551
  184DOPC  H14R25331   5.879   0.972   4.608 -0.2999 -0.0040  0.4396
  184DOPC  H14S25332   5.718   0.959   4.554  1.2096  2.1521  1.1164
  184DOPC  C21525333   5.851   0.804   4.490 -0.1049  0.2224 -0.0608
  184DOPC  H15R25334   5.770   0.734   4.462  0.4543 -0.2778 -0.4468
  184DOPC  H15S25335   5.938   0.749   4.532 -0.2975  0.2820  0.4296
  184DOPC  C21625336   5.899   0.872   4.353 -0.1169  0.2986 -0.2011
  184DOPC  H16R25337   5.981   0.943   4.374  0.9081 -0.8621 -0.1606
  184DOPC  H16S25338   5.814   0.919   4.299 -0.9504  1.7075  2.1737
  184DOPC  C21725339   5.967   0.763   4.268 -0.6616  0.4234  0.0123
  184DOPC  H17R25340   5.988   0.805   4.167  0.2022 -1.7326 -0.7686
  184DOPC  H17S25341   5.891   0.682   4.259  0.3079 -0.8159  2.2637
  184DOPC  C21825342   6.107   0.713   4.321  0.5967  0.9700 -0.2448
  184DOPC  H18R25343   6.079   0.664   4.417 -1.9539 -0.8706 -1.8123
  184DOPC  H18S25344   6.181   0.796   4.326 -0.9540  2.3633  1.1422
  184DOPC  H18T25345   6.146   0.636   4.252 -0.4173 -1.2247  1.5117
  184DOPC   C3325346   5.136   1.450   5.661 -0.6257 -0.3937 -0.1130
  184DOPC   H3X25347   5.060   1.458   5.742 -0.2045 -1.7075  0.4430
  184DOPC   H3Y25348   5.082   1.398   5.579 -1.2234 -1.9869  1.2235
  184DOPC   C3425349   5.185   1.582   5.607  0.0099 -0.3006 -0.4431
  184DOPC   H4X25350   5.258   1.641   5.666 -0.8475  2.7566 -2.2043
  184DOPC   H4Y25351   5.093   1.645   5.602  0.0182 -0.3969 -2.2806
  184DOPC   C3525352   5.245   1.578   5.471 -0.6928 -0.9212  0.3531
  184DOPC   H5X25353   5.166   1.546   5.401 -2.9021 -0.0039  2.3036
  184DOPC   H5Y25354   5.320   1.497   5.457  0.0869 -0.1679  0.0434
  184DOPC   C3625355   5.313   1.712   5.425 -0.5970  0.1603 -0.4693
  184DOPC   H6X25356   5.386   1.751   5.500 -0.3910 -1.0390 -0.0214
  184DOPC   H6Y25357   5.366   1.684   5.332 -1.7779  0.1852 -1.1717
  184DOPC   C3725358   5.219   1.821   5.380 -0.2090  0.1149 -0.8522
  184DOPC   H7X25359   5.158   1.776   5.300 -0.1362 -0.9832 -0.3064
  184DOPC   H7Y25360   5.173   1.835   5.481  2.0301  0.4833  0.1969
  184DOPC   C3825361   5.293   1.945   5.331  0.0237  0.4039  0.1373
  184DOPC   H8X25362   5.352   1.920   5.240 -0.8926 -1.4368  0.0056
  184DOPC   H8Y25363   5.380   1.961   5.398  1.7779  1.8455 -2.3197
  184DOPC   C3925364   5.210   2.068   5.326 -0.8501  0.4422 -0.1080
  184DOPC   H9X25365   5.231   2.133   5.412 -0.6735  1.6470 -1.0318
  184DOPC  C31025366   5.103   2.102   5.249 -0.0650 -0.1705 -0.9391
  184DOPC  H10X25367   5.051   2.195   5.274 -0.6678 -0.7844  0.1402
  184DOPC  C31125368   5.042   2.016   5.148  0.3690 -0.7902  0.0601
  184DOPC  H11X25369   4.935   1.996   5.167  0.5262 -0.6618  1.1373
  184DOPC  H11Y25370   5.089   1.915   5.143 -1.7123 -1.8044  0.1805
  184DOPC  C31225371   5.050   2.073   5.001 -0.5002  0.1817 -0.1039
  184DOPC  H12X25372   4.989   2.166   5.003  0.5875  0.9164  1.9929
  184DOPC  H12Y25373   4.997   2.007   4.928  0.2676 -1.4470  0.7595
  184DOPC  C31325374   5.195   2.115   4.961  0.9115  0.1874 -0.8934
  184DOPC  H13X25375   5.239   2.188   5.032  1.1318 -0.2540 -0.5701
  184DOPC  H13Y25376   5.257   2.023   4.970 -0.9874 -1.1305 -0.9061
  184DOPC  C31425377   5.204   2.162   4.809  0.8881  0.3303 -0.5758
  184DOPC  H14X25378   5.168   2.078   4.745  0.9795  0.0000 -0.1954
  184DOPC  H14Y25379   5.136   2.247   4.785 -0.8272 -1.1271 -1.1654
  184DOPC  C31525380   5.344   2.212   4.772  0.2838  0.2431 -0.4079
  184DOPC  H15X25381   5.365   2.306   4.828 -1.4763  0.5288 -0.1535
  184DOPC  H15Y25382   5.347   2.240   4.664 -1.8819  0.0396 -0.5629
  184DOPC  C31625383   5.452   2.105   4.790 -0.2075  0.2423  0.7784
  184DOPC  H16X25384   5.467   2.068   4.894  1.9107 -1.6602 -0.1251
  184DOPC  H16Y25385   5.420   2.018   4.730  1.0933 -0.1404  0.6078
  184DOPC  C31725386   5.582   2.162   4.728 -0.5354  0.1509 -0.7071
  184DOPC  H17X25387   5.604   2.252   4.788  0.9361 -0.4527 -0.3031
  184DOPC  H17Y25388   5.670   2.099   4.752  1.2770  3.0072  0.6052
  184DOPC  C31825389   5.584   2.197   4.572  0.5204  0.7441  0.1275
  184DOPC  H18X25390   5.544   2.106   4.522  1.3456  0.6420 -0.3643
  184DOPC  H18Y25391   5.528   2.288   4.542  1.3277  1.1821 -0.0896
  184DOPC  H18Z25392   5.690   2.216   4.545  0.5280 -1.1506 -1.3815
  185DOPC     N25393   5.236   2.104   6.465 -0.3401 -0.7575  0.5974
  185DOPC   C1225394   5.315   2.088   6.333 -0.2454  0.0642 -0.0421
  185DOPC  H12A25395   5.241   2.060   6.260 -0.9172  0.1194  0.6031
  185DOPC  H12B25396   5.388   2.008   6.330 -0.3453 -0.0029 -1.7903
  185DOPC   C1325397   5.120   2.193   6.436  0.4888 -0.5949 -0.0426
  185DOPC  H13A25398   5.059   2.154   6.356  1.3695 -1.0991 -0.4834
  185DOPC  H13B25399   5.064   2.206   6.528  1.1007 -1.4460  0.4687
  185DOPC  H13C25400   5.155   2.293   6.417  1.1068 -0.8079 -0.0530
  185DOPC   C1425401   5.317   2.170   6.574 -0.9223 -0.2104  0.2447
  185DOPC  H14A25402   5.352   2.262   6.528 -0.7242  0.5412  1.8333
  185DOPC  H14B25403   5.265   2.193   6.666 -2.2004 -0.4194 -0.4060
  185DOPC  H14C25404   5.407   2.115   6.593 -0.4135  1.1578  2.0912
  185DOPC   C1525405   5.186   1.969   6.509  0.2065  0.5098 -0.2807
  185DOPC  H15A25406   5.155   1.976   6.612  1.2499 -2.2212  0.3003
  185DOPC  H15B25407   5.259   1.890   6.506  1.9349  2.0806 -1.6982
  185DOPC  H15C25408   5.101   1.933   6.453 -0.5134  0.6757  0.6776
  185DOPC   C1125409   5.396   2.210   6.282 -0.3405  0.1096  0.0410
  185DOPC  H11A25410   5.428   2.192   6.177 -0.6032  2.7562 -0.5450
  185DOPC  H11B25411   5.329   2.298   6.273 -1.1415 -0.6463 -1.9841
  185DOPC     P25412   5.641   2.160   6.365 -0.5015  0.1868 -0.1022
  185DOPC   O1325413   5.618   2.013   6.376  0.3016 -0.7774  0.3322
  185DOPC   O1425414   5.739   2.221   6.463  0.1977  0.5834 -0.5675
  185DOPC   O1225415   5.500   2.238   6.375 -0.6088 -0.4341  0.0739
  185DOPC   O1125416   5.687   2.195   6.215  0.2948  0.0758  0.2193
  185DOPC    C125417   5.831   2.173   6.194  0.2152 -0.0377 -0.1109
  185DOPC    HA25418   5.869   2.081   6.242  0.4547  0.7700  1.3114
  185DOPC    HB25419   5.886   2.263   6.230 -2.0365  0.9964  1.0118
  185DOPC    C225420   5.851   2.150   6.046  0.3498  0.1147  0.1334
  185DOPC    HS25421   5.815   2.241   5.993 -1.0837  0.0355  0.8971
  185DOPC   O2125422   5.786   2.029   6.006  0.3655 -0.0747  0.1551
  185DOPC   C2125423   5.705   2.037   5.900 -0.4602  0.4609  0.4025
  185DOPC   O2225424   5.680   2.136   5.840  0.0474  0.5144 -0.2338
  185DOPC   C2225425   5.645   1.897   5.868  0.0642  0.9155 -0.7917
  185DOPC   H2R25426   5.575   1.880   5.953 -0.7803 -2.4574 -1.9886
  185DOPC   H2S25427   5.728   1.824   5.874 -0.8887 -0.2674 -1.3854
  185DOPC    C325428   5.998   2.135   6.011 -0.5475 -0.6213 -0.0560
  185DOPC    HX25429   6.025   2.031   6.036 -1.6930 -1.4549 -2.0230
  185DOPC    HY25430   6.060   2.205   6.071  1.2194 -1.3573 -0.9478
  185DOPC   O3125431   6.018   2.159   5.868 -0.9504  0.0789  0.4569
  185DOPC   C3125432   6.048   2.276   5.839 -0.0592  0.0132  0.2193
  185DOPC   O3225433   6.066   2.370   5.919  0.1211 -0.0330  0.0758
  185DOPC   C3225434   6.057   2.290   5.685 -0.2254  0.8289  0.0656
  185DOPC   H2X25435   6.161   2.276   5.646  0.0067  3.1656 -0.3284
  185DOPC   H2Y25436   5.998   2.206   5.644  2.6194 -0.9561 -0.7016
  185DOPC   C2325437   5.582   1.885   5.729 -0.1294  0.6972 -0.1561
  185DOPC   H3R25438   5.530   1.978   5.697 -0.6364 -0.3168 -2.4751
  185DOPC   H3S25439   5.503   1.807   5.730  0.2104  0.3212 -1.4036
  185DOPC   C2425440   5.692   1.849   5.621 -0.0436 -0.7115  0.3367
  185DOPC   H4R25441   5.651   1.828   5.520 -0.0099  0.4126  0.0837
  185DOPC   H4S25442   5.731   1.752   5.659  0.5226 -0.3886  0.5906
  185DOPC   C2525443   5.816   1.934   5.601 -0.5355  0.2675  0.0051
  185DOPC   H5R25444   5.896   1.928   5.678 -1.3757 -1.6522  0.8176
  185DOPC   H5S25445   5.791   2.039   5.576 -0.8058  0.5416  1.3118
  185DOPC   C2625446   5.884   1.887   5.471  0.1848  0.3622  0.3166
  185DOPC   H6R25447   5.812   1.894   5.387  0.8190  0.4236 -0.2328
  185DOPC   H6S25448   5.912   1.781   5.488  0.6839  0.6700  1.5077
  185DOPC   C2725449   6.010   1.973   5.437 -0.3320  0.1521 -0.1764
  185DOPC   H7R25450   6.089   1.963   5.515  1.1317 -1.1633 -1.7433
  185DOPC   H7S25451   5.981   2.078   5.416 -1.0448 -0.3225 -1.6932
  185DOPC   C2825452   6.077   1.918   5.304  0.2426 -0.1571 -0.1993
  185DOPC   H8R25453   6.010   1.936   5.216  1.4601  2.4637 -0.6721
  185DOPC   H8S25454   6.071   1.807   5.309  2.0044 -0.6389 -4.6019
  185DOPC   C2925455   6.215   1.958   5.265 -0.0893  0.6079  0.0110
  185DOPC   H9R25456   6.298   1.904   5.314  1.6488  1.7165 -1.5706
  185DOPC  C21025457   6.247   2.024   5.153  0.6074  0.4384  0.5641
  185DOPC  H10R25458   6.349   2.046   5.117  0.1825 -1.8332 -2.4444
  185DOPC  C21125459   6.136   2.091   5.072  0.2274 -0.1949  0.1916
  185DOPC  H11R25460   6.157   2.196   5.041  2.3740 -0.9765 -1.2341
  185DOPC  H11S25461   6.042   2.109   5.128 -0.1264 -2.2496  0.3232
  185DOPC  C21225462   6.096   2.009   4.949  0.0957  0.0676 -0.9384
  185DOPC  H12R25463   6.045   1.913   4.969 -0.7643  0.4597 -1.2053
  185DOPC  H12S25464   6.188   1.979   4.894 -1.4081 -4.7699 -1.3211
  185DOPC  C21325465   6.002   2.082   4.848 -0.2411  0.0739 -0.0614
  185DOPC  H13R25466   6.057   2.174   4.821  0.2787 -0.5678 -1.2696
  185DOPC  H13S25467   5.897   2.097   4.881 -0.2675  0.3029 -0.2560
  185DOPC  C21425468   5.990   1.996   4.724 -0.0974  0.1047  0.6521
  185DOPC  H14R25469   6.081   1.939   4.695 -0.7406 -0.3869 -0.4115
  185DOPC  H14S25470   5.964   2.063   4.640 -0.4456 -0.6657  0.1388
  185DOPC  C21525471   5.883   1.885   4.726 -0.5663 -0.3021 -0.0717
  185DOPC  H15R25472   5.788   1.943   4.727  0.7741  2.0083 -0.4003
  185DOPC  H15S25473   5.904   1.833   4.822 -1.0891 -0.4233 -0.0172
  185DOPC  C21625474   5.883   1.814   4.593 -0.1153 -0.3067  1.3610
  185DOPC  H16R25475   5.979   1.758   4.590 -0.2544 -0.5104 -0.5104
  185DOPC  H16S25476   5.886   1.894   4.516 -0.2091  0.9795  2.6461
  185DOPC  C21725477   5.765   1.721   4.561 -0.2752 -0.0485 -0.2871
  185DOPC  H17R25478   5.786   1.654   4.476 -1.6904  0.1860 -0.8409
  185DOPC  H17S25479   5.681   1.794   4.554  1.4485  2.2601  1.3046
  185DOPC  C21825480   5.728   1.632   4.681  0.2555 -0.1619  0.0651
  185DOPC  H18R25481   5.679   1.697   4.756 -1.2679  1.5097 -2.2250
  185DOPC  H18S25482   5.817   1.593   4.735  1.8898  1.4131 -1.3118
  185DOPC  H18T25483   5.641   1.571   4.649 -0.0185  1.0065 -1.5888
  185DOPC   C3325484   5.983   2.413   5.630 -0.1110  0.3563 -0.1246
  185DOPC   H3X25485   6.052   2.478   5.572 -0.2449  0.3950 -0.2388
  185DOPC   H3Y25486   5.962   2.477   5.718  0.1756  0.4604 -0.1291
  185DOPC   C3425487   5.845   2.378   5.560  0.6800 -0.0614  0.0361
  185DOPC   H4X25488   5.782   2.327   5.636  2.1853 -2.0013  0.0797
  185DOPC   H4Y25489   5.863   2.309   5.474 -1.7295  1.2300 -1.5992
  185DOPC   C3525490   5.782   2.507   5.501  0.2594 -0.2735  0.2521
  185DOPC   H5X25491   5.865   2.567   5.458  0.1314 -0.1241  0.2120
  185DOPC   H5Y25492   5.731   2.546   5.591 -1.3574  0.3662 -0.8807
  185DOPC   C3625493   5.680   2.466   5.389 -0.2837  0.1442 -0.1534
  185DOPC   H6X25494   5.637   2.553   5.334  0.1472  0.2393 -0.3383
  185DOPC   H6Y25495   5.755   2.412   5.327  0.1247 -0.3362  0.7442
  185DOPC   C3725496   5.560   2.379   5.450  0.1549  0.0253  0.0400
  185DOPC   H7X25497   5.576   2.359   5.558  0.7068 -1.5146 -0.2945
  185DOPC   H7Y25498   5.467   2.439   5.439  0.2149  0.6793  2.6089
  185DOPC   C3825499   5.524   2.251   5.373  0.4841  0.2528 -0.2875
  185DOPC   H8X25500   5.438   2.192   5.412  1.6403 -1.5765 -0.3662
  185DOPC   H8Y25501   5.619   2.195   5.387  0.6921 -0.0612 -2.5655
  185DOPC   C3925502   5.493   2.280   5.227  0.3880  0.0112 -0.6419
  185DOPC   H9X25503   5.410   2.351   5.222  0.7212  0.3151 -2.6469
  185DOPC  C31025504   5.562   2.233   5.124  0.2812  0.8794 -0.0812
  185DOPC  H10X25505   5.527   2.250   5.021  1.8664 -0.5629 -0.9123
  185DOPC  C31125506   5.667   2.119   5.133 -0.1091 -0.7366 -0.4107
  185DOPC  H11X25507   5.718   2.130   5.232 -2.8677  0.0119  1.0342
  185DOPC  H11Y25508   5.740   2.141   5.052  1.1008 -0.1586  0.7828
  185DOPC  C31225509   5.623   1.977   5.126  0.3308 -0.2042 -0.7643
  185DOPC  H12X25510   5.516   1.978   5.095  0.1331  4.3004 -0.5505
  185DOPC  H12Y25511   5.632   1.939   5.230 -1.6276 -1.6091 -1.0571
  185DOPC  C31325512   5.716   1.888   5.039 -0.2768  0.0942  0.0596
  185DOPC  H13X25513   5.697   1.909   4.932  1.0217 -0.5395 -0.3170
  185DOPC  H13Y25514   5.820   1.924   5.050  0.8637 -2.4190 -1.6640
  185DOPC  C31425515   5.700   1.743   5.069  0.1655  0.3879  0.2413
  185DOPC  H14X25516   5.595   1.720   5.044  0.3139 -0.5732  0.4909
  185DOPC  H14Y25517   5.762   1.681   5.001 -1.2102 -1.1924  0.3694
  185DOPC  C31525518   5.746   1.701   5.210  0.5926  0.3596 -0.5531
  185DOPC  H15X25519   5.670   1.738   5.282 -1.2775 -1.9082 -1.2219
  185DOPC  H15Y25520   5.842   1.754   5.232  0.3935  1.0451 -1.3090
  185DOPC  C31625521   5.749   1.548   5.213  0.1982  0.6287  0.3891
  185DOPC  H16X25522   5.660   1.498   5.168  0.2858 -0.4535  1.3718
  185DOPC  H16Y25523   5.829   1.517   5.143 -0.4782  0.3297 -0.2638
  185DOPC  C31725524   5.765   1.483   5.358  0.7548  0.3207  0.4936
  185DOPC  H17X25525   5.776   1.374   5.340  1.5989  0.3067  1.0492
  185DOPC  H17Y25526   5.859   1.520   5.403  1.2573  0.4547 -0.6298
  185DOPC  C31825527   5.641   1.511   5.448  0.2377 -0.1054  0.2637
  185DOPC  H18X25528   5.652   1.516   5.559 -0.6270  1.0391  0.3178
  185DOPC  H18Y25529   5.609   1.616   5.430 -0.5704 -0.2921  0.5380
  185DOPC  H18Z25530   5.577   1.424   5.421  1.5463 -0.7489 -0.8673
  186DOPC     N25531   9.684   9.074   5.879 -0.5790  0.3001 -0.0683
  186DOPC   C1225532   9.605   9.193   5.933 -0.3901  0.0803 -0.1123
  186DOPC  H12A25533   9.667   9.281   5.924  0.1382 -0.4238 -1.6334
  186DOPC  H12B25534   9.573   9.190   6.036  1.6191 -0.0270  0.5359
  186DOPC   C1325535   9.595   8.952   5.864  0.5364 -0.1766 -0.3242
  186DOPC  H13A25536   9.508   8.979   5.807 -0.0908  1.1355  1.1637
  186DOPC  H13B25537   9.640   8.866   5.818 -0.1114 -1.1201  0.7687
  186DOPC  H13C25538   9.550   8.926   5.959 -0.5023  0.4976 -0.6124
  186DOPC   C1425539   9.789   9.051   5.985 -0.1950 -0.2625  0.7471
  186DOPC  H14A25540   9.856   8.972   5.957 -1.1729 -0.8229 -0.0817
  186DOPC  H14B25541   9.856   9.136   5.991 -1.1616  0.5282  0.6314
  186DOPC  H14C25542   9.749   9.029   6.082 -2.0515 -0.9659 -0.1289
  186DOPC   C1525543   9.750   9.117   5.751 -0.0906 -0.1586  0.1146
  186DOPC  H15A25544   9.811   9.203   5.775  1.1104 -0.6942 -0.8881
  186DOPC  H15B25545   9.680   9.151   5.676 -0.8855 -1.0345  0.4268
  186DOPC  H15C25546   9.827   9.053   5.711 -0.8365 -1.2887  0.4081
  186DOPC   C1125547   9.469   9.234   5.859  0.3494 -0.4935 -0.2744
  186DOPC  H11A25548   9.432   9.335   5.887 -0.0337 -0.6086 -0.3617
  186DOPC  H11B25549   9.494   9.248   5.751  0.9170  0.5685 -0.0255
  186DOPC     P25550   9.248   9.105   5.786  0.0226 -0.2445  0.2406
  186DOPC   O1325551   9.140   9.196   5.822  0.5794  0.4477 -0.4073
  186DOPC   O1425552   9.225   8.960   5.796 -0.1275  0.3718  0.2816
  186DOPC   O1225553   9.372   9.136   5.872 -0.4043 -0.2226  0.3778
  186DOPC   O1125554   9.303   9.137   5.640 -0.0232  0.2305 -0.4768
  186DOPC    C125555   9.383   9.052   5.564 -0.5353 -0.2788  0.3374
  186DOPC    HA25556   9.410   8.963   5.625 -1.4412 -0.2494  0.8143
  186DOPC    HB25557   9.469   9.118   5.539 -1.2913  0.9344  0.8201
  186DOPC    C225558   9.315   9.008   5.432  0.0061  0.0675  0.3887
  186DOPC    HS25559   9.403   8.955   5.389 -0.6718 -0.1903 -0.7121
  186DOPC   O2125560   9.278   9.107   5.339 -0.3524  0.0534  0.0143
  186DOPC   C2125561   9.368   9.183   5.276  0.0391 -0.2451  0.2318
  186DOPC   O2225562   9.492   9.169   5.289 -0.6311  0.2967  0.0880
  186DOPC   C2225563   9.283   9.289   5.205 -0.3221  0.4560 -0.0720
  186DOPC   H2R25564   9.218   9.334   5.283  0.6369  1.0231  0.4190
  186DOPC   H2S25565   9.213   9.241   5.134 -2.5787  0.2851  2.1396
  186DOPC    C325566   9.197   8.908   5.456 -0.4807  0.0942 -0.3245
  186DOPC    HX25567   9.116   8.982   5.471  0.0204  0.8599 -1.2892
  186DOPC    HY25568   9.204   8.853   5.552 -1.0046 -0.5510 -0.6488
  186DOPC   O3125569   9.166   8.814   5.350 -0.6944 -0.1586 -0.3881
  186DOPC   C3125570   9.254   8.715   5.338 -0.0505  0.4738 -0.3140
  186DOPC   O3225571   9.357   8.701   5.404  0.3548 -0.1089  0.4307
  186DOPC   C3225572   9.199   8.613   5.243 -0.5033  0.5898  0.3597
  186DOPC   H2X25573   9.213   8.515   5.293 -1.4749  0.5621  0.6110
  186DOPC   H2Y25574   9.088   8.623   5.238 -0.4341  0.9055 -1.2136
  186DOPC   C2325575   9.359   9.396   5.129  0.1559  0.5332 -0.2683
  186DOPC   H3R25576   9.434   9.346   5.064 -0.4841 -1.0742  0.1585
  186DOPC   H3S25577   9.404   9.467   5.202 -0.8061 -1.3721  2.3381
  186DOPC   C2425578   9.266   9.484   5.050  0.5741  0.1285  0.1269
  186DOPC   H4R25579   9.222   9.562   5.116 -0.4749  0.1565 -0.5860
  186DOPC   H4S25580   9.172   9.434   5.018 -0.1178  1.6139 -0.2519
  186DOPC   C2525581   9.325   9.538   4.921  0.3942 -0.2871  0.3665
  186DOPC   H5R25582   9.332   9.452   4.851  0.3049 -1.8202  2.1746
  186DOPC   H5S25583   9.428   9.577   4.934  1.4708 -3.3683  2.0476
  186DOPC   C2625584   9.229   9.647   4.880 -0.0077 -0.4144 -0.5047
  186DOPC   H6R25585   9.229   9.730   4.954  0.9512 -1.1080  0.2982
  186DOPC   H6S25586   9.126   9.611   4.859 -0.5367  1.4642 -1.2845
  186DOPC   C2725587   9.267   9.724   4.745 -0.2751 -0.0800 -0.0672
  186DOPC   H7R25588   9.274   9.645   4.668  0.6428  0.5661 -0.6623
  186DOPC   H7S25589   9.366   9.773   4.743  0.1866 -1.0244 -0.8356
  186DOPC   C2825590   9.148   9.807   4.696  1.2735 -0.0220 -0.3829
  186DOPC   H8R25591   9.132   9.887   4.772  2.0128 -0.6475  0.4322
  186DOPC   H8S25592   9.065   9.733   4.698  2.0953 -0.9562  1.4562
  186DOPC   C2925593   9.151   9.877   4.561  0.2015 -0.0698  0.4314
  186DOPC   H9R25594   9.229   9.838   4.495  0.4391  0.6362  0.2884
  186DOPC  C21025595   9.088   9.991   4.534 -0.3565 -0.1899 -0.6563
  186DOPC  H10R25596   9.101  10.034   4.433  2.4823 -0.2490 -0.4057
  186DOPC  C21125597   8.992  10.065   4.620 -0.3265 -0.5889 -0.0426
  186DOPC  H11R25598   9.029  10.167   4.645 -1.8384 -0.1403  0.4792
  186DOPC  H11S25599   8.976  10.009   4.714 -0.5373 -1.3584 -0.5267
  186DOPC  C21225600   8.869  10.093   4.536  0.5134 -0.2507 -0.7206
  186DOPC  H12R25601   8.832  10.002   4.485 -0.1701  1.1369 -2.8289
  186DOPC  H12S25602   8.911  10.159   4.457  2.6422 -0.4076  0.2198
  186DOPC  C21325603   8.757  10.160   4.620 -0.0213  0.2726 -0.0451
  186DOPC  H13R25604   8.785  10.251   4.678 -0.9330  0.9011 -0.5665
  186DOPC  H13S25605   8.720  10.088   4.696 -1.6392  0.4197 -0.6333
  186DOPC  C21425606   8.631  10.185   4.529  0.4347 -1.3446 -0.3160
  186DOPC  H14R25607   8.552  10.234   4.590  1.9278  1.2214 -0.3254
  186DOPC  H14S25608   8.588  10.085   4.505 -3.6698  0.3979 -1.1469
  186DOPC  C21525609   8.650  10.275   4.401 -0.6906 -0.5135 -0.4591
  186DOPC  H15R25610   8.730  10.223   4.344  1.4032  0.4526  1.4319
  186DOPC  H15S25611   8.677  10.379   4.428 -1.8809 -0.3908  0.3886
  186DOPC  C21625612   8.530  10.304   4.307 -0.1694  0.5495  0.3574
  186DOPC  H16R25613   8.497  10.206   4.266  0.0571 -0.0791  1.6364
  186DOPC  H16S25614   8.577  10.368   4.229 -1.6167 -1.2556 -2.1626
  186DOPC  C21725615   8.410  10.372   4.374 -0.0079  0.4905  1.1382
  186DOPC  H17R25616   8.438  10.459   4.437 -1.8027  1.4627  0.6746
  186DOPC  H17S25617   8.354  10.303   4.441 -0.5395  0.8207  1.0482
  186DOPC  C21825618   8.313  10.417   4.257 -0.0468  0.2379  0.0430
  186DOPC  H18R25619   8.212  10.443   4.294 -0.5414 -2.2900  0.6737
  186DOPC  H18S25620   8.321  10.351   4.168 -0.2583  0.3744 -0.0787
  186DOPC  H18T25621   8.356  10.513   4.222  0.5149 -0.6321 -1.7787
  186DOPC   C3325622   9.249   8.622   5.099  0.3817 -0.0199 -0.0090
  186DOPC   H3X25623   9.213   8.720   5.059 -0.2210 -0.4028 -0.4137
  186DOPC   H3Y25624   9.197   8.548   5.035 -1.7863  0.9001  0.6096
  186DOPC   C3425625   9.399   8.597   5.084 -0.4102  0.1979  0.2101
  186DOPC   H4X25626   9.417   8.506   5.145  1.6976  0.5748  0.2274
  186DOPC   H4Y25627   9.453   8.684   5.128  0.6954  0.6645 -1.9317
  186DOPC   C3525628   9.443   8.559   4.945 -0.8192 -0.2907  0.4009
  186DOPC   H5X25629   9.406   8.636   4.875  1.8552 -1.1761 -2.1866
  186DOPC   H5Y25630   9.396   8.461   4.920 -1.5151  0.1645 -0.0818
  186DOPC   C3625631   9.591   8.545   4.929 -0.5194  0.4457  0.0825
  186DOPC   H6X25632   9.642   8.632   4.977 -0.4823 -0.4764  1.8037
  186DOPC   H6Y25633   9.635   8.462   4.989 -2.6466  0.2884  1.5323
  186DOPC   C3725634   9.634   8.528   4.782  0.4036 -1.0927  0.1254
  186DOPC   H7X25635   9.567   8.456   4.731 -1.4531  0.8373 -0.3435
  186DOPC   H7Y25636   9.618   8.625   4.728  0.7547 -0.6278  0.8439
  186DOPC   C3825637   9.778   8.497   4.760 -0.2033 -0.5228  0.9436
  186DOPC   H8X25638   9.784   8.504   4.650 -0.5890 -0.0783  0.9451
  186DOPC   H8Y25639   9.783   8.390   4.789 -1.0932 -0.9852 -0.5215
  186DOPC   C3925640   9.891   8.574   4.824  0.5125  0.5659  0.1735
  186DOPC   H9X25641   9.871   8.626   4.919 -1.9602 -2.0209  1.2244
  186DOPC  C31025642  10.019   8.566   4.785 -0.7007 -0.1688  0.0921
  186DOPC  H10X25643  10.098   8.601   4.853  0.4050 -0.2045 -1.1432
  186DOPC  C31125644  10.068   8.491   4.665 -0.0526 -0.1102 -0.3590
  186DOPC  H11X25645  10.107   8.558   4.585 -0.2873 -1.9751 -2.1255
  186DOPC  H11Y25646   9.988   8.449   4.600  0.4153 -3.4055  1.0219
  186DOPC  C31225647  10.161   8.371   4.695 -0.3326  0.1959 -0.2543
  186DOPC  H12X25648  10.207   8.339   4.599  1.6747  0.0903  0.6920
  186DOPC  H12Y25649  10.120   8.287   4.754 -0.6793 -1.0846 -2.2091
  186DOPC  C31325650  10.284   8.415   4.771 -0.1179 -0.5050  0.2148
  186DOPC  H13X25651  10.340   8.495   4.719  1.0633 -1.8831 -0.6972
  186DOPC  H13Y25652  10.253   8.460   4.868 -1.0101 -0.3951 -0.1172
  186DOPC  C31425653  10.386   8.293   4.801 -0.4851  0.0366 -0.4359
  186DOPC  H14X25654  10.322   8.218   4.853 -0.7575 -0.0107 -0.8393
  186DOPC  H14Y25655  10.405   8.257   4.698 -1.4363  1.2974 -1.0850
  186DOPC  C31525656  10.510   8.343   4.881 -0.2449  0.4201 -1.1127
  186DOPC  H15X25657  10.528   8.451   4.862  1.1384 -0.1113 -3.1069
  186DOPC  H15Y25658  10.595   8.299   4.825  0.4061  1.6024 -1.0860
  186DOPC  C31625659  10.526   8.326   5.038  0.0120 -0.3532  0.0517
  186DOPC  H16X25660  10.463   8.402   5.089 -0.9473 -0.5772 -0.7599
  186DOPC  H16Y25661  10.497   8.219   5.041  0.1328 -0.3890 -0.0797
  186DOPC  C31725662  10.673   8.348   5.079  0.2262 -0.2337 -0.3245
  186DOPC  H17X25663  10.739   8.293   5.008 -0.8317 -1.9675 -0.0348
  186DOPC  H17Y25664  10.696   8.456   5.067 -1.8742  0.4660  1.3178
  186DOPC  C31825665  10.697   8.296   5.220  0.5844 -0.3204  0.7875
  186DOPC  H18X25666  10.642   8.362   5.291 -1.2219  0.5398 -1.2939
  186DOPC  H18Y25667  10.646   8.198   5.222 -1.7751  0.8205  0.0051
  186DOPC  H18Z25668  10.804   8.294   5.251  0.5852  2.2983  1.2106
  187DOPC     N25669   9.407   0.812   6.822 -0.0777  0.7299  0.6197
  187DOPC   C1225670   9.320   0.901   6.743 -0.2256  0.1899  0.4822
  187DOPC  H12A25671   9.377   0.987   6.714  0.3580  0.2699  1.7955
  187DOPC  H12B25672   9.233   0.935   6.798 -2.0710  0.4106 -2.3906
  187DOPC   C1325673   9.534   0.764   6.753  0.6663 -0.1056 -0.5016
  187DOPC  H13A25674   9.508   0.701   6.669  0.0984 -0.3369 -0.1549
  187DOPC  H13B25675   9.579   0.854   6.713 -0.5780  0.3173 -0.9933
  187DOPC  H13C25676   9.599   0.707   6.818  2.1295  3.0977  1.0564
  187DOPC   C1425677   9.337   0.682   6.867 -0.6045 -0.0243  1.1121
  187DOPC  H14A25678   9.308   0.642   6.771  0.2189  0.4417  0.6586
  187DOPC  H14B25679   9.420   0.620   6.899 -0.4247 -1.1176 -1.2712
  187DOPC  H14C25680   9.262   0.679   6.944 -1.0586 -2.3381  0.6475
  187DOPC   C1525681   9.444   0.879   6.951  0.1461 -0.7624 -0.3715
  187DOPC  H15A25682   9.353   0.914   6.998  0.5948 -0.4403  0.2750
  187DOPC  H15B25683   9.498   0.973   6.942  0.4490 -0.4790  2.9572
  187DOPC  H15C25684   9.490   0.809   7.019 -1.0592 -1.4091 -0.2003
  187DOPC   C1125685   9.251   0.841   6.619  1.3506 -0.4418 -0.4354
  187DOPC  H11A25686   9.208   0.915   6.549 -2.1086 -0.1114  1.7831
  187DOPC  H11B25687   9.324   0.789   6.554  0.3574 -2.9409  0.3093
  187DOPC     P25688   9.003   0.791   6.678  0.2089  0.1667 -0.5559
  187DOPC   O1325689   8.984   0.878   6.800  0.0484  0.0236  0.2425
  187DOPC   O1425690   8.925   0.669   6.671  0.3715 -0.7715  1.1537
  187DOPC   O1225691   9.156   0.743   6.655 -0.1792 -1.0317 -0.3061
  187DOPC   O1125692   8.979   0.879   6.553  0.3633 -0.1959  0.8587
  187DOPC    C125693   8.931   0.836   6.425  0.6298 -0.9109 -0.3324
  187DOPC    HA25694   8.865   0.916   6.385  1.7735 -1.2995 -3.2864
  187DOPC    HB25695   8.884   0.735   6.435  2.5984 -1.9119 -0.6066
  187DOPC    C225696   9.037   0.814   6.314 -0.3824 -0.8926  0.0691
  187DOPC    HS25697   9.132   0.855   6.354 -1.0500  0.1231  0.6465
  187DOPC   O2125698   9.005   0.873   6.190  0.1187 -0.3180 -0.0133
  187DOPC   C2125699   9.022   1.003   6.175 -0.0896 -0.6313  0.6844
  187DOPC   O2225700   9.072   1.075   6.261  0.0201  0.0385  0.8869
  187DOPC   C2225701   8.983   1.036   6.032 -0.2191 -0.0102  0.5129
  187DOPC   H2R25702   8.890   1.096   6.039  1.2650  2.4379  0.4961
  187DOPC   H2S25703   8.953   0.946   5.974 -0.5370  1.1586 -1.2042
  187DOPC    C325704   9.055   0.657   6.299  0.1708 -0.9999 -0.5363
  187DOPC    HX25705   8.950   0.623   6.288 -0.9179  1.6728  0.6013
  187DOPC    HY25706   9.092   0.607   6.391  0.8503  0.6185  0.0994
  187DOPC   O3125707   9.129   0.616   6.186  0.0440 -0.0248 -0.1698
  187DOPC   C3125708   9.258   0.623   6.207 -0.4096 -0.8155  0.3221
  187DOPC   O3225709   9.314   0.654   6.313  0.5699 -0.1843 -0.5437
  187DOPC   C3225710   9.343   0.596   6.081  0.6644  0.4875 -0.2536
  187DOPC   H2X25711   9.427   0.528   6.107  0.3609 -0.7654 -2.3449
  187DOPC   H2Y25712   9.281   0.531   6.016  1.3349  0.2021 -0.6175
  187DOPC   C2325713   9.077   1.130   5.948 -0.2506  0.2300 -0.9680
  187DOPC   H3R25714   9.179   1.086   5.949 -0.6903 -0.8266  0.5753
  187DOPC   H3S25715   9.087   1.214   6.020  1.1464 -1.9091  1.5144
  187DOPC   C2425716   9.020   1.180   5.816  0.0126 -0.1041 -0.3063
  187DOPC   H4R25717   8.927   1.240   5.827 -1.3916 -1.8373 -1.9749
  187DOPC   H4S25718   8.986   1.088   5.764  0.4788 -1.4207  1.5846
  187DOPC   C2525719   9.123   1.248   5.725  0.6051 -0.9911  0.1031
  187DOPC   H5R25720   9.222   1.201   5.740  0.5099 -1.7652 -1.4519
  187DOPC   H5S25721   9.120   1.355   5.756 -1.1875 -0.7948 -0.6057
  187DOPC   C2625722   9.088   1.242   5.572 -0.6829  0.3087  0.2154
  187DOPC   H6R25723   9.080   1.136   5.540 -2.1481  0.4313  0.1355
  187DOPC   H6S25724   9.169   1.290   5.513 -2.0287  0.2765 -1.7210
  187DOPC   C2725725   8.952   1.303   5.533 -0.2038 -0.0227  0.1357
  187DOPC   H7R25726   8.944   1.406   5.574 -1.7769 -0.1346  0.1680
  187DOPC   H7S25727   8.870   1.247   5.584 -1.4593 -1.3893 -3.1069
  187DOPC   C2825728   8.922   1.295   5.379 -0.4937 -0.0899 -0.0743
  187DOPC   H8R25729   8.927   1.191   5.341 -0.0545 -0.2194  0.3167
  187DOPC   H8S25730   9.002   1.346   5.322 -0.7060 -0.8617 -1.0920
  187DOPC   C2925731   8.800   1.374   5.347 -0.6025 -0.4382 -0.9077
  187DOPC   H9R25732   8.805   1.480   5.376 -1.0111 -0.9969  1.4231
  187DOPC  C21025733   8.697   1.327   5.277 -0.4976  0.0049  0.5398
  187DOPC  H10R25734   8.615   1.399   5.264 -0.5069 -0.3162 -1.6656
  187DOPC  C21125735   8.678   1.193   5.219 -0.1549  0.6527  0.1615
  187DOPC  H11R25736   8.767   1.128   5.232 -0.6739  0.1076  1.0768
  187DOPC  H11S25737   8.659   1.202   5.109  0.1726 -0.4795  0.0005
  187DOPC  C21225738   8.550   1.131   5.279  0.4167  0.0225 -0.1640
  187DOPC  H12R25739   8.458   1.189   5.260  0.1276 -0.5415 -0.5075
  187DOPC  H12S25740   8.560   1.116   5.389  3.6004  2.5614  0.0762
  187DOPC  C21325741   8.504   0.994   5.227  0.4640  0.2737 -0.1016
  187DOPC  H13R25742   8.584   0.935   5.177  0.4238  1.0290 -1.0747
  187DOPC  H13S25743   8.428   1.004   5.147  0.6566  3.1408 -0.0078
  187DOPC  C21425744   8.438   0.890   5.321  0.7120 -0.4788  0.4655
  187DOPC  H14R25745   8.496   0.901   5.415  0.7845  1.0070  0.2720
  187DOPC  H14S25746   8.436   0.795   5.263  1.1251 -0.2168  0.0149
  187DOPC  C21525747   8.291   0.929   5.367  0.0691  0.0898  0.2081
  187DOPC  H15R25748   8.236   0.947   5.273 -1.3905  0.4112  1.0931
  187DOPC  H15S25749   8.276   1.027   5.418 -2.5391  0.6909 -1.5095
  187DOPC  C21625750   8.222   0.820   5.451 -0.0632  0.4455  0.6797
  187DOPC  H16R25751   8.245   0.720   5.410  1.8510  0.5755  1.3477
  187DOPC  H16S25752   8.112   0.840   5.445 -0.0579  0.4214  0.5039
  187DOPC  C21725753   8.269   0.808   5.595  0.3226  0.4996 -0.4994
  187DOPC  H17R25754   8.239   0.895   5.658  0.5553  0.6617 -0.6083
  187DOPC  H17S25755   8.379   0.791   5.597  0.1415 -1.1265 -2.4335
  187DOPC  C21825756   8.214   0.677   5.654 -0.7024 -0.7916  0.0204
  187DOPC  H18R25757   8.106   0.687   5.628 -0.7863 -0.6733  0.4046
  187DOPC  H18S25758   8.233   0.666   5.763  0.1759 -1.9985 -0.2362
  187DOPC  H18T25759   8.252   0.592   5.593  0.3451  0.0865 -0.5731
  187DOPC   C3325760   9.408   0.717   6.016 -0.2720 -0.4263  0.2214
  187DOPC   H3X25761   9.483   0.681   5.942  0.3917 -0.6473  0.9856
  187DOPC   H3Y25762   9.459   0.774   6.096 -1.4100 -1.8078  1.9811
  187DOPC   C3425763   9.303   0.802   5.947 -0.0321 -0.2316 -1.0353
  187DOPC   H4X25764   9.350   0.895   5.908 -1.1850  2.1670  2.7786
  187DOPC   H4Y25765   9.238   0.844   6.027  0.1596 -1.7469 -0.0297
  187DOPC   C3525766   9.210   0.729   5.850  0.1717  0.0322  0.6178
  187DOPC   H5X25767   9.140   0.810   5.820 -1.5514 -2.5956 -3.2289
  187DOPC   H5Y25768   9.151   0.659   5.913  1.7127 -2.6307 -0.7024
  187DOPC   C3625769   9.274   0.664   5.728 -0.3649 -0.2682  0.3243
  187DOPC   H6X25770   9.362   0.720   5.691 -1.6959  0.0341 -2.7293
  187DOPC   H6Y25771   9.304   0.559   5.751 -2.1110 -0.8860 -0.0861
  187DOPC   C3725772   9.188   0.674   5.605  0.3014 -0.1267 -0.5153
  187DOPC   H7X25773   9.097   0.610   5.615  0.5262 -0.1974  1.5474
  187DOPC   H7Y25774   9.144   0.774   5.584 -2.2609 -1.3054 -1.2570
  187DOPC   C3825775   9.260   0.621   5.476  0.0796  0.3480  0.8077
  187DOPC   H8X25776   9.362   0.664   5.469 -0.5505  1.8261  0.4108
  187DOPC   H8Y25777   9.200   0.651   5.388  0.2155 -0.4093  0.4458
  187DOPC   C3925778   9.260   0.473   5.480 -0.0217 -0.2620 -0.6310
  187DOPC   H9X25779   9.186   0.417   5.540 -0.0554 -0.6554 -1.0286
  187DOPC  C31025780   9.340   0.401   5.403 -0.0980 -0.1266  0.7536
  187DOPC  H10X25781   9.321   0.293   5.399  1.9676 -0.5096 -0.3249
  187DOPC  C31125782   9.445   0.450   5.312 -0.1218  0.3259  0.2780
  187DOPC  H11X25783   9.534   0.383   5.306 -0.1538  0.3902 -2.3719
  187DOPC  H11Y25784   9.489   0.548   5.342  0.9272  0.0278 -0.2093
  187DOPC  C31225785   9.404   0.470   5.162  0.4607 -0.8144 -0.5124
  187DOPC  H12X25786   9.312   0.533   5.161 -0.5058 -2.1341  0.6349
  187DOPC  H12Y25787   9.365   0.372   5.128  2.5237 -1.9301  0.1231
  187DOPC  C31325788   9.511   0.507   5.066 -0.7734  0.1382 -0.1851
  187DOPC  H13X25789   9.563   0.603   5.087  0.5241 -0.1664 -1.7619
  187DOPC  H13Y25790   9.588   0.427   5.073 -0.1253  0.8471  1.2591
  187DOPC  C31425791   9.457   0.504   4.928 -0.0726 -0.0147 -0.1886
  187DOPC  H14X25792   9.411   0.405   4.913  0.7598 -0.4676  0.1803
  187DOPC  H14Y25793   9.391   0.592   4.909 -1.8689 -1.6170 -1.7178
  187DOPC  C31525794   9.579   0.515   4.838  0.4495  0.4898 -0.2378
  187DOPC  H15X25795   9.656   0.446   4.879 -0.1650  1.5875  3.1171
  187DOPC  H15Y25796   9.611   0.621   4.845  0.9615  0.2365  1.9736
  187DOPC  C31625797   9.537   0.492   4.696  0.1414  0.9515  0.1059
  187DOPC  H16X25798   9.497   0.389   4.685 -0.8291  1.2591  0.6483
  187DOPC  H16Y25799   9.458   0.560   4.658 -0.5860 -0.0857 -0.2791
  187DOPC  C31725800   9.661   0.517   4.604 -0.2629 -0.5758 -1.1296
  187DOPC  H17X25801   9.702   0.616   4.635 -0.5711 -0.8523  0.2200
  187DOPC  H17Y25802   9.742   0.443   4.616  0.7864  0.4785 -1.5640
  187DOPC  C31825803   9.607   0.517   4.455  0.1970 -0.1787  0.1367
  187DOPC  H18X25804   9.581   0.417   4.415 -0.2897 -0.7705  1.8561
  187DOPC  H18Y25805   9.513   0.577   4.450  0.8198  0.9500  1.3818
  187DOPC  H18Z25806   9.680   0.573   4.393 -1.3249  2.1269  0.3007
  188DOPC     N25807   8.657  10.780   6.645 -0.4577  0.4574  0.3098
  188DOPC   C1225808   8.699  10.787   6.501 -0.3984 -0.3781  0.8077
  188DOPC  H12A25809   8.627  10.836   6.436 -0.3981  1.0482  1.8360
  188DOPC  H12B25810   8.701  10.688   6.457 -1.0386  0.4331 -1.2085
  188DOPC   C1325811   8.646  10.914   6.705  0.0887  0.3776  0.1275
  188DOPC  H13A25812   8.612  10.918   6.808 -0.3139 -1.5431  0.1208
  188DOPC  H13B25813   8.738  10.971   6.708 -1.0757  2.2901  0.7934
  188DOPC  H13C25814   8.581  10.987   6.661  1.5422  2.2219  0.9196
  188DOPC   C1425815   8.759  10.692   6.722 -0.2658 -0.9088  0.3117
  188DOPC  H14A25816   8.745  10.726   6.823 -1.9163  2.0000 -0.7504
  188DOPC  H14B25817   8.739  10.586   6.712  0.5397 -1.1805  1.4418
  188DOPC  H14C25818   8.854  10.725   6.684 -0.5432 -1.8482 -1.2906
  188DOPC   C1525819   8.527  10.706   6.661  0.3261 -0.2740 -0.9879
  188DOPC  H15A25820   8.501  10.702   6.766  0.3019  0.6743 -0.9514
  188DOPC  H15B25821   8.539  10.608   6.618  2.3104  0.1972 -1.5685
  188DOPC  H15C25822   8.447  10.752   6.604  0.5770  1.3818 -0.0728
  188DOPC   C1125823   8.832  10.843   6.456  0.4579 -0.3758  1.0683
  188DOPC  H11A25824   8.832  10.858   6.346 -0.7114 -2.0804  0.7957
  188DOPC  H11B25825   8.842  10.944   6.501 -1.1794  0.0861  0.4702
  188DOPC     P25826   8.975  10.643   6.395 -0.5660 -0.0961  0.1861
  188DOPC   O1325827   8.855  10.561   6.359  0.5112 -0.2104  0.2980
  188DOPC   O1425828   9.089  10.567   6.441  0.1716  0.1059 -0.2679
  188DOPC   O1225829   8.927  10.750   6.497 -0.1594  0.1257  0.0848
  188DOPC   O1125830   9.008  10.723   6.269  0.2781 -0.1419 -0.3470
  188DOPC    C125831   9.092  10.837   6.264 -0.0714 -0.9376  0.1925
  188DOPC    HA25832   9.189  10.817   6.314  0.0707 -2.6070 -0.6937
  188DOPC    HB25833   9.047  10.924   6.318 -1.7554 -1.7938  0.2310
  188DOPC    C225834   9.124  10.878   6.118  1.0705 -0.1664 -0.0867
  188DOPC    HS25835   9.196  10.962   6.131  1.5668 -0.4209 -1.0913
  188DOPC   O2125836   9.005  10.920   6.050  0.0418  0.3625  0.3017
  188DOPC   C2125837   8.966  11.038   6.078  0.7296 -0.3041 -0.1622
  188DOPC   O2225838   9.009  11.117   6.164 -0.1244  0.9292 -0.3265
  188DOPC   C2225839   8.853  11.076   5.980  0.1398 -0.1778 -0.1739
  188DOPC   H2R25840   8.828  11.177   6.019  0.6076 -0.9480  2.3298
  188DOPC   H2S25841   8.781  10.993   5.999  1.7929 -1.2255  2.0020
  188DOPC    C325842   9.199  10.763   6.040 -0.0252 -0.3321 -0.1885
  188DOPC    HX25843   9.115  10.691   6.033 -2.1032  2.0468 -1.1058
  188DOPC    HY25844   9.282  10.732   6.107  0.4961 -0.7927 -1.0177
  188DOPC   O3125845   9.245  10.802   5.910 -0.4340  0.3810  0.6084
  188DOPC   C3125846   9.235  10.707   5.813 -0.4361  0.4417 -0.3120
  188DOPC   O3225847   9.213  10.593   5.829  0.1722  0.0996 -1.2855
  188DOPC   C3225848   9.261  10.762   5.674  0.8666 -0.3342  0.8242
  188DOPC   H2X25849   9.158  10.786   5.638  1.2786 -0.5371 -0.5493
  188DOPC   H2Y25850   9.322  10.855   5.680  0.1896  0.1624  0.2849
  188DOPC   C2325851   8.893  11.071   5.836  0.2298 -0.5844 -0.4794
  188DOPC   H3R25852   8.809  11.086   5.764 -0.2398 -2.4303 -0.3734
  188DOPC   H3S25853   8.934  10.971   5.813  1.8189  0.3329 -1.8528
  188DOPC   C2425854   9.000  11.184   5.800 -0.0692 -0.7381  0.2029
  188DOPC   H4R25855   9.064  11.234   5.876 -0.7846 -0.7231  0.8117
  188DOPC   H4S25856   8.936  11.267   5.763  0.7490 -0.2838 -0.2237
  188DOPC   C2525857   9.087  11.119   5.694 -0.0802 -0.2271  0.6170
  188DOPC   H5R25858   9.124  11.017   5.715  0.0221 -0.0182  1.4700
  188DOPC   H5S25859   9.178  11.182   5.698  1.2992 -2.1517  0.4988
  188DOPC   C2625860   9.027  11.130   5.557 -0.2270 -0.1138 -0.0037
  188DOPC   H6R25861   8.922  11.098   5.572  0.3669 -1.2347  2.2668
  188DOPC   H6S25862   9.085  11.060   5.494  2.5716  0.6012  1.5903
  188DOPC   C2725863   9.032  11.272   5.497  0.3628  0.4810 -0.0415
  188DOPC   H7R25864   9.076  11.272   5.395  1.4648  1.0809  0.4230
  188DOPC   H7S25865   9.096  11.333   5.563 -2.1921  1.6486  1.5214
  188DOPC   C2825866   8.894  11.355   5.482 -0.8089  0.2400 -0.2590
  188DOPC   H8R25867   8.930  11.456   5.450 -0.8177  0.2984 -0.0849
  188DOPC   H8S25868   8.850  11.367   5.583 -0.6619 -1.4111  0.0290
  188DOPC   C2925869   8.806  11.286   5.383 -0.7987 -0.0733  1.1410
  188DOPC   H9R25870   8.830  11.180   5.366 -1.3984 -0.0750  0.1954
  188DOPC  C21025871   8.737  11.346   5.288  0.6194 -0.3435  0.3864
  188DOPC  H10R25872   8.666  11.283   5.234  1.3167 -2.6865  2.0360
  188DOPC  C21125873   8.712  11.494   5.273 -0.1969 -0.0664 -0.0657
  188DOPC  H11R25874   8.797  11.563   5.289 -0.4688  0.5666 -1.2253
  188DOPC  H11S25875   8.647  11.523   5.358 -0.8481 -0.5648 -0.3812
  188DOPC  C21225876   8.633  11.529   5.138 -0.2236  0.5108 -0.8845
  188DOPC  H12R25877   8.697  11.499   5.053 -2.4979 -0.3979 -2.3595
  188DOPC  H12S25878   8.629  11.640   5.136  1.1140  0.5908 -0.6075
  188DOPC  C21325879   8.491  11.477   5.141  0.2607  0.1892  0.1495
  188DOPC  H13R25880   8.429  11.532   5.215 -0.0093 -0.8005  0.6714
  188DOPC  H13S25881   8.489  11.369   5.165  0.5630  0.0636 -0.3661
  188DOPC  C21425882   8.423  11.497   5.003 -1.3796  0.2622  0.8722
  188DOPC  H14R25883   8.494  11.448   4.933  0.0241 -2.0976  3.7664
  188DOPC  H14S25884   8.432  11.606   4.980 -1.6404  0.3494  1.1806
  188DOPC  C21525885   8.289  11.437   4.981 -0.2685 -0.0452  1.1615
  188DOPC  H15R25886   8.285  11.328   5.001 -0.1291  0.0053  1.4762
  188DOPC  H15S25887   8.269  11.454   4.873 -0.3105  2.3407  1.4938
  188DOPC  C21625888   8.177  11.513   5.061  0.3510 -0.0197  0.2698
  188DOPC  H16R25889   8.168  11.616   5.020 -0.9357 -1.4418 -3.4786
  188DOPC  H16S25890   8.212  11.510   5.166  3.0006  0.4369 -0.5378
  188DOPC  C21725891   8.042  11.450   5.023 -0.7216  0.0454  0.4426
  188DOPC  H17R25892   8.061  11.340   5.030  1.3704  0.2532 -1.0438
  188DOPC  H17S25893   8.003  11.475   4.923  0.3672 -1.2962 -0.3604
  188DOPC  C21825894   7.926  11.490   5.122 -1.1683 -0.2102 -0.4402
  188DOPC  H18R25895   7.890  11.594   5.112 -0.7892 -0.0774 -0.4279
  188DOPC  H18S25896   7.969  11.461   5.220 -0.7206 -2.4606 -1.2390
  188DOPC  H18T25897   7.837  11.426   5.102 -1.7937  0.7053 -0.6599
  188DOPC   C3325898   9.323  10.662   5.580  0.3914 -0.2223 -0.2517
  188DOPC   H3X25899   9.252  10.576   5.574  0.5551 -0.5282  1.5860
  188DOPC   H3Y25900   9.409  10.620   5.636 -0.6943  0.7987  2.3515
  188DOPC   C3425901   9.360  10.715   5.442  0.2216  0.1275 -0.3801
  188DOPC   H4X25902   9.420  10.809   5.445  0.2292  0.1696 -1.5875
  188DOPC   H4Y25903   9.273  10.753   5.385  1.0104  1.7405 -0.5758
  188DOPC   C3525904   9.431  10.608   5.363  1.1936  0.3934 -0.3368
  188DOPC   H5X25905   9.367  10.517   5.373  1.1892  0.2642 -1.4376
  188DOPC   H5Y25906   9.522  10.578   5.420  0.5619 -1.3352 -0.1761
  188DOPC   C3625907   9.458  10.647   5.220 -0.1208  0.0108  0.0090
  188DOPC   H6X25908   9.459  10.557   5.155 -0.5407  1.3094 -1.8696
  188DOPC   H6Y25909   9.363  10.698   5.192 -1.0300 -0.7149  1.5953
  188DOPC   C3725910   9.583  10.727   5.190  0.0893 -0.1116 -0.1276
  188DOPC   H7X25911   9.575  10.829   5.233  1.7589 -0.0924  0.1952
  188DOPC   H7Y25912   9.669  10.669   5.231 -0.0673  0.3848  0.9267
  188DOPC   C3825913   9.601  10.739   5.038 -0.2066  0.9801  0.5553
  188DOPC   H8X25914   9.622  10.639   4.995 -0.2466  0.9625  0.5771
  188DOPC   H8Y25915   9.697  10.793   5.024  0.7137 -1.0796 -1.7494
  188DOPC   C3925916   9.488  10.807   4.962  0.0451  0.5754 -0.6903
  188DOPC   H9X25917   9.443  10.890   5.019 -1.5668 -1.5239  1.2887
  188DOPC  C31025918   9.422  10.762   4.860 -0.7911  0.2347 -0.2702
  188DOPC  H10X25919   9.346  10.827   4.814  0.5477  2.9478  1.0673
  188DOPC  C31125920   9.454  10.646   4.777 -0.2019  0.4557 -0.2620
  188DOPC  H11X25921   9.354  10.617   4.736  0.2873 -1.0096 -0.4810
  188DOPC  H11Y25922   9.506  10.569   4.837  1.5814  2.4728  0.9002
  188DOPC  C31225923   9.562  10.665   4.666  0.2172  0.1296 -0.1436
  188DOPC  H12X25924   9.585  10.564   4.625  0.0923 -0.1555  0.4887
  188DOPC  H12Y25925   9.656  10.690   4.720  0.2489 -0.0740 -0.1016
  188DOPC  C31325926   9.519  10.766   4.559  0.0072  0.6877  0.5931
  188DOPC  H13X25927   9.428  10.725   4.511 -1.1653  2.8396  0.8470
  188DOPC  H13Y25928   9.494  10.863   4.607 -1.2116  0.8559 -0.3222
  188DOPC  C31425929   9.635  10.788   4.462  0.1131 -0.4579  0.6081
  188DOPC  H14X25930   9.599  10.861   4.387 -2.2585 -1.4202  0.7344
  188DOPC  H14Y25931   9.730  10.817   4.512  1.2433 -1.0448 -1.1180
  188DOPC  C31525932   9.664  10.666   4.372 -0.1734  0.4020 -0.5314
  188DOPC  H15X25933   9.573  10.635   4.316 -1.6095 -2.3116  2.9070
  188DOPC  H15Y25934   9.694  10.580   4.435 -0.6720  0.1339 -0.6542
  188DOPC  C31625935   9.776  10.680   4.274 -0.1982 -0.1661 -0.0638
  188DOPC  H16X25936   9.782  10.584   4.218 -1.2101  0.9447 -2.2130
  188DOPC  H16Y25937   9.753  10.759   4.199  1.1771  0.1956 -0.1230
  188DOPC  C31725938   9.910  10.726   4.335 -0.5507  0.0263 -0.0372
  188DOPC  H17X25939   9.905  10.821   4.392  0.4552  0.5129 -0.7079
  188DOPC  H17Y25940   9.939  10.657   4.417  1.1077  1.3759  0.5946
  188DOPC  C31825941  10.032  10.750   4.238 -0.1309 -0.5877 -0.0609
  188DOPC  H18X25942  10.066  10.653   4.196 -2.6767 -1.7119  0.2756
  188DOPC  H18Y25943  10.010  10.826   4.161  0.8222 -0.6194 -0.3796
  188DOPC  H18Z25944  10.119  10.782   4.301 -0.6222 -2.4667  1.7010
  189DOPC     N25945   5.914   8.280   6.451 -0.2961  0.3849 -0.5862
  189DOPC   C1225946   5.891   8.309   6.306 -0.4577 -0.0892 -0.6865
  189DOPC  H12A25947   5.946   8.231   6.256 -1.2259 -1.4205  0.4373
  189DOPC  H12B25948   5.939   8.399   6.272  0.9651 -0.8298 -0.6904
  189DOPC   C1325949   5.841   8.145   6.479  0.3600  0.2693 -0.0952
  189DOPC  H13A25950   5.734   8.159   6.470  0.5169  0.5404 -1.8994
  189DOPC  H13B25951   5.875   8.066   6.414  1.4592  0.3613  0.3425
  189DOPC  H13C25952   5.851   8.116   6.582 -0.8795 -1.9313 -0.5261
  189DOPC   C1425953   5.870   8.385   6.541  0.0430 -0.3014 -0.1230
  189DOPC  H14A25954   5.766   8.369   6.566  0.4161 -0.2393  1.6049
  189DOPC  H14B25955   5.933   8.391   6.629  1.0418 -1.9491 -0.6707
  189DOPC  H14C25956   5.882   8.480   6.491 -1.8805 -0.4279 -0.9215
  189DOPC   C1525957   6.062   8.252   6.474 -0.1725  0.4622  0.6181
  189DOPC  H15A25958   6.079   8.212   6.572  0.1782  1.4401  0.9727
  189DOPC  H15B25959   6.121   8.343   6.467 -2.8328  2.2226 -0.9717
  189DOPC  H15C25960   6.102   8.182   6.402  1.9342  1.3475  0.8496
  189DOPC   C1125961   5.740   8.314   6.264 -0.4258 -0.1494  0.3817
  189DOPC  H11A25962   5.730   8.316   6.153  0.0459  1.5116  0.3444
  189DOPC  H11B25963   5.698   8.215   6.291  1.8288 -1.5532 -0.8994
  189DOPC     P25964   5.703   8.569   6.273 -0.1202 -0.0373 -0.2314
  189DOPC   O1325965   5.842   8.610   6.298  0.7772 -0.1374 -0.0580
  189DOPC   O1425966   5.602   8.667   6.319 -1.0172  0.7090  0.1055
  189DOPC   O1225967   5.671   8.425   6.319  0.3724  0.3454 -0.3159
  189DOPC   O1125968   5.691   8.554   6.122 -0.1358  0.3717  0.3337
  189DOPC    C125969   5.798   8.539   6.021 -0.1714 -0.5017 -0.4355
  189DOPC    HA25970   5.777   8.456   5.951  1.2821 -1.3553  0.1101
  189DOPC    HB25971   5.894   8.512   6.069 -1.2214  0.7290  2.6409
  189DOPC    C225972   5.822   8.675   5.943  0.3275  0.9031 -0.1504
  189DOPC    HS25973   5.867   8.747   6.014 -1.3544  0.6937  1.2003
  189DOPC   O2125974   5.689   8.718   5.903  0.3786  0.3732  0.2117
  189DOPC   C2125975   5.682   8.842   5.856 -0.8770  0.1641 -0.9151
  189DOPC   O2225976   5.774   8.925   5.863  0.7142 -0.1122  0.4714
  189DOPC   C2225977   5.540   8.878   5.822  0.0513 -0.7712  0.6847
  189DOPC   H2R25978   5.512   8.981   5.856  0.1035  0.0626 -1.6007
  189DOPC   H2S25979   5.481   8.810   5.886 -0.1755 -0.5278  0.7371
  189DOPC    C325980   5.918   8.660   5.819  0.0843 -0.0643 -0.5769
  189DOPC    HX25981   6.011   8.607   5.851  0.3172  1.3941  1.3385
  189DOPC    HY25982   5.944   8.760   5.779  1.3177 -0.6493 -1.3015
  189DOPC   O3125983   5.849   8.592   5.713 -0.6298 -0.6314 -0.3832
  189DOPC   C3125984   5.884   8.469   5.684  0.1370  0.3401 -0.0104
  189DOPC   O3225985   5.937   8.389   5.760  0.1347  1.3554 -0.3072
  189DOPC   C3225986   5.855   8.422   5.539 -0.9748 -0.4612 -0.0616
  189DOPC   H2X25987   5.867   8.506   5.467 -1.9243  0.1725  0.4895
  189DOPC   H2Y25988   5.937   8.353   5.510 -2.5774 -2.0006 -1.0702
  189DOPC   C2325989   5.512   8.867   5.668  0.8729  0.0116 -0.0365
  189DOPC   H3R25990   5.561   8.952   5.614 -1.1650 -0.2925 -2.5898
  189DOPC   H3S25991   5.404   8.888   5.658  1.1259  1.0717 -0.7813
  189DOPC   C2425992   5.531   8.727   5.615 -0.2686 -0.1309 -0.1037
  189DOPC   H4R25993   5.465   8.654   5.666  2.2783 -0.9085  2.3708
  189DOPC   H4S25994   5.635   8.695   5.636 -0.2521 -0.8105 -1.1529
  189DOPC   C2525995   5.506   8.714   5.467  0.4614  0.5424 -0.2229
  189DOPC   H5R25996   5.517   8.605   5.446  0.6751  0.3200  0.9564
  189DOPC   H5S25997   5.580   8.768   5.404 -0.8117  1.9895 -0.5477
  189DOPC   C2625998   5.361   8.757   5.431  0.3820  0.1783 -0.2991
  189DOPC   H6R25999   5.338   8.861   5.463 -0.7258  0.0980 -0.8050
  189DOPC   H6S26000   5.288   8.708   5.500 -0.8694  3.9034  1.2542
  189DOPC   C2726001   5.314   8.743   5.289  0.5202  0.0438  0.4556
  189DOPC   H7R26002   5.307   8.638   5.255 -1.0639  0.0044  0.8051
  189DOPC   H7S26003   5.393   8.794   5.231 -0.9943  0.4787 -1.3239
  189DOPC   C2826004   5.177   8.815   5.268  0.4781  0.2766 -0.6387
  189DOPC   H8R26005   5.199   8.917   5.306  3.0788 -1.2065  2.2196
  189DOPC   H8S26006   5.094   8.773   5.328  1.0848  1.0108  0.7506
  189DOPC   C2926007   5.133   8.839   5.128 -0.0919  0.1100  0.3974
  189DOPC   H9R26008   5.182   8.928   5.086 -0.0499  0.4689  1.1881
  189DOPC  C21026009   5.053   8.758   5.048  0.3969 -0.8091 -0.2504
  189DOPC  H10R26010   5.035   8.792   4.945 -2.6984 -0.7254  0.2334
  189DOPC  C21126011   4.979   8.637   5.090 -0.1861 -0.1403  0.3940
  189DOPC  H11R26012   4.871   8.660   5.102 -0.1660 -0.5157  1.3998
  189DOPC  H11S26013   5.023   8.600   5.185 -0.4507 -2.7337 -0.4080
  189DOPC  C21226014   4.993   8.523   4.985 -0.1767  0.1399 -0.1272
  189DOPC  H12R26015   4.934   8.436   5.019  0.7951 -0.1387  0.9157
  189DOPC  H12S26016   5.095   8.481   4.995 -0.2992  0.1718  1.6051
  189DOPC  C21326017   4.954   8.556   4.836 -0.3286 -0.0765  0.1539
  189DOPC  H13R26018   5.001   8.650   4.801 -2.4659  0.4792 -1.4304
  189DOPC  H13S26019   4.845   8.570   4.817 -0.2629 -0.3548 -0.4434
  189DOPC  C21426020   4.999   8.442   4.744 -0.1792  0.0742 -0.0053
  189DOPC  H14R26021   4.955   8.343   4.770 -0.8267  0.7009  1.3999
  189DOPC  H14S26022   5.108   8.445   4.763  0.0838  4.7844 -0.9939
  189DOPC  C21526023   4.968   8.466   4.598 -0.9696 -1.0687  0.0710
  189DOPC  H15R26024   5.025   8.548   4.550  1.4164 -1.8062  1.4612
  189DOPC  H15S26025   4.858   8.472   4.581 -0.6384  3.0475 -1.6490
  189DOPC  C21626026   5.023   8.351   4.516  0.0124 -0.8422 -0.4546
  189DOPC  H16R26027   4.964   8.261   4.543  1.4728 -1.0503  2.5102
  189DOPC  H16S26028   5.128   8.325   4.543 -0.1904 -1.2331 -0.0332
  189DOPC  C21726029   5.010   8.366   4.369 -0.3854 -0.5305 -0.1073
  189DOPC  H17R26030   5.061   8.460   4.340  0.8615 -0.8665  0.8976
  189DOPC  H17S26031   4.901   8.379   4.351 -0.4164  0.8882  0.9758
  189DOPC  C21826032   5.057   8.244   4.288  0.1858  0.6154  0.8040
  189DOPC  H18R26033   5.011   8.150   4.325  1.5682 -2.3836 -4.1381
  189DOPC  H18S26034   5.167   8.227   4.299  0.3660  0.3256 -1.1667
  189DOPC  H18T26035   5.025   8.259   4.183 -1.9486 -2.1282  0.9695
  189DOPC   C3326036   5.711   8.357   5.523  0.2114  1.0151 -0.0437
  189DOPC   H3X26037   5.625   8.425   5.545  0.3233  1.2780 -0.4084
  189DOPC   H3Y26038   5.697   8.269   5.590 -1.8450 -2.0436 -4.0585
  189DOPC   C3426039   5.696   8.293   5.381  0.1292  0.0728 -0.0129
  189DOPC   H4X26040   5.595   8.246   5.388 -0.2005  0.9904  2.5230
  189DOPC   H4Y26041   5.778   8.221   5.363  1.5106  1.3692  0.8985
  189DOPC   C3526042   5.701   8.390   5.269 -0.1453 -0.6404 -0.0972
  189DOPC   H5X26043   5.777   8.379   5.188  0.8671  1.9729  0.3915
  189DOPC   H5Y26044   5.721   8.489   5.315 -1.4168 -1.1277  1.5828
  189DOPC   C3626045   5.577   8.382   5.180 -0.2708  0.4465 -0.6560
  189DOPC   H6X26046   5.575   8.282   5.131  0.4285 -0.2143  0.6051
  189DOPC   H6Y26047   5.479   8.382   5.231 -0.4039 -0.9277 -0.8860
  189DOPC   C3726048   5.568   8.491   5.071  0.0580  0.5537  0.4501
  189DOPC   H7X26049   5.585   8.583   5.130 -1.6263  1.0089  0.2842
  189DOPC   H7Y26050   5.653   8.477   5.001 -1.4194 -0.7218 -1.1938
  189DOPC   C3826051   5.434   8.488   4.999 -0.6353 -0.3261  0.2709
  189DOPC   H8X26052   5.357   8.488   5.079 -0.4306  1.4904  0.5147
  189DOPC   H8Y26053   5.427   8.392   4.943  0.2604 -0.0005 -0.4116
  189DOPC   C3926054   5.409   8.601   4.910  0.9459 -0.5052  0.1712
  189DOPC   H9X26055   5.393   8.698   4.957 -1.2722  0.8813 -3.0891
  189DOPC  C31026056   5.392   8.599   4.777 -0.3787 -0.1315  0.5609
  189DOPC  H10X26057   5.377   8.688   4.714 -0.9410 -0.0362  0.8264
  189DOPC  C31126058   5.405   8.480   4.689 -0.0596  0.8924  0.0057
  189DOPC  H11X26059   5.342   8.395   4.724  2.1280 -1.1484 -0.6858
  189DOPC  H11Y26060   5.511   8.448   4.698 -0.3990 -0.7293 -1.2748
  189DOPC  C31226061   5.365   8.506   4.541  0.0721 -0.1670 -0.0465
  189DOPC  H12X26062   5.271   8.564   4.542  0.8983  1.2311  1.0832
  189DOPC  H12Y26063   5.347   8.403   4.503 -0.3093 -0.0665 -0.1402
  189DOPC  C31326064   5.471   8.584   4.464 -0.5447  0.1902  0.5036
  189DOPC  H13X26065   5.543   8.629   4.536 -1.4075  1.1395  0.7965
  189DOPC  H13Y26066   5.537   8.516   4.406  2.6401  2.4362  1.2129
  189DOPC  C31426067   5.410   8.684   4.369  0.8525  0.3724  0.4822
  189DOPC  H14X26068   5.347   8.760   4.421 -1.4786 -2.0031  1.3718
  189DOPC  H14Y26069   5.483   8.736   4.304  0.8498 -0.2690 -0.0408
  189DOPC  C31526070   5.324   8.607   4.269 -0.2650 -0.6433  0.8857
  189DOPC  H15X26071   5.228   8.582   4.320  0.2338 -0.5725  1.8927
  189DOPC  H15Y26072   5.379   8.519   4.228  2.1197  0.2214  2.0239
  189DOPC  C31626073   5.288   8.686   4.145  0.0285  0.1121 -0.3090
  189DOPC  H16X26074   5.385   8.717   4.101  1.4849 -0.9525  1.9509
  189DOPC  H16Y26075   5.239   8.617   4.073 -1.3758  0.8131 -0.0628
  189DOPC  C31726076   5.192   8.805   4.163  0.2048  0.6487  1.1936
  189DOPC  H17X26077   5.235   8.860   4.249  1.7360 -0.0030  0.8756
  189DOPC  H17Y26078   5.200   8.855   4.064 -0.2478  0.2973  0.9712
  189DOPC  C31826079   5.047   8.753   4.196 -0.1794 -0.4879  0.6506
  189DOPC  H18X26080   5.055   8.697   4.292  1.9113 -2.1213 -0.4096
  189DOPC  H18Y26081   4.973   8.836   4.205 -0.2427 -0.7063  2.9061
  189DOPC  H18Z26082   4.998   8.689   4.120 -1.3408 -3.9418  3.9810
  190DOPC     N26083  11.689  10.648   6.800  0.2919 -0.2505  0.0420
  190DOPC   C1226084  11.770  10.586   6.686  1.2150 -0.5125  0.7448
  190DOPC  H12A26085  11.737  10.484   6.670  1.5233 -0.2550 -2.1666
  190DOPC  H12B26086  11.875  10.570   6.703  0.9846 -0.2221  2.6572
  190DOPC   C1326087  11.728  10.788   6.811 -0.2516  0.5138  0.0208
  190DOPC  H13A26088  11.719  10.849   6.723 -0.2309  0.1605 -0.2316
  190DOPC  H13B26089  11.678  10.823   6.900 -1.0908  1.4058 -0.7767
  190DOPC  H13C26090  11.835  10.786   6.823  0.2309 -2.8098 -3.2045
  190DOPC   C1426091  11.728  10.573   6.921  0.2126  0.2271  0.1825
  190DOPC  H14A26092  11.835  10.568   6.934 -0.0909 -1.0888  2.9047
  190DOPC  H14B26093  11.694  10.618   7.014  0.9339  0.2120  0.4611
  190DOPC  H14C26094  11.694  10.471   6.920 -0.1480  0.3474 -0.1352
  190DOPC   C1526095  11.543  10.637   6.780  0.5092 -0.1920  0.0044
  190DOPC  H15A26096  11.512  10.540   6.745 -0.1955  0.1809 -0.4251
  190DOPC  H15B26097  11.519  10.696   6.693 -0.6947 -1.9238 -0.8774
  190DOPC  H15C26098  11.487  10.666   6.867  0.3779 -1.8480  0.4910
  190DOPC   C1126099  11.750  10.660   6.554 -0.0695  0.1931 -0.5581
  190DOPC  H11A26100  11.794  10.762   6.558 -0.6251  0.4090  0.4077
  190DOPC  H11B26101  11.821  10.600   6.492  2.3152  0.9917  1.2292
  190DOPC     P26102  11.556  10.532   6.441  0.2123 -0.0883  0.4120
  190DOPC   O1326103  11.425  10.565   6.387 -0.3240 -0.0526 -0.7597
  190DOPC   O1426104  11.555  10.427   6.543 -0.1392 -0.9122  0.1698
  190DOPC   O1226105  11.613  10.661   6.506  0.4380 -0.1750 -0.4785
  190DOPC   O1126106  11.657  10.496   6.322 -0.2660 -0.0169 -0.0285
  190DOPC    C126107  11.695  10.580   6.211  0.2514  0.0829  0.6261
  190DOPC    HA26108  11.802  10.567   6.185  0.8499 -2.8618  3.8214
  190DOPC    HB26109  11.675  10.687   6.233 -1.9572 -0.1685  0.1524
  190DOPC    C226110  11.612  10.554   6.079 -0.8765 -0.5394  0.0550
  190DOPC    HS26111  11.512  10.600   6.096 -0.6764 -0.3111  0.6680
  190DOPC   O2126112  11.599  10.414   6.060  0.0342 -0.0838 -0.0539
  190DOPC   C2126113  11.507  10.382   5.969  0.1852  0.2227 -0.7599
  190DOPC   O2226114  11.423  10.454   5.921  0.2945  0.4371  0.4483
  190DOPC   C2226115  11.517  10.232   5.946 -0.6206 -0.1851 -0.2078
  190DOPC   H2R26116  11.449  10.180   6.016 -1.2270  0.0472 -0.6117
  190DOPC   H2S26117  11.618  10.199   5.978  0.3809  2.7780 -0.0286
  190DOPC    C326118  11.667  10.641   5.961 -1.1908 -0.8850  0.2875
  190DOPC    HX26119  11.775  10.616   5.950 -0.5489 -0.1724  3.7986
  190DOPC    HY26120  11.669  10.747   5.996 -2.5987 -1.3595  1.9098
  190DOPC   O3126121  11.605  10.632   5.830 -0.0049  0.4315  0.1164
  190DOPC   C3126122  11.504  10.711   5.819 -0.3259  0.5106 -0.0313
  190DOPC   O3226123  11.453  10.773   5.911 -0.1658  0.7905  0.4165
  190DOPC   C3226124  11.453  10.697   5.676  0.4222  0.3084  0.0386
  190DOPC   H2X26125  11.512  10.770   5.616 -0.9117  1.0010 -0.4668
  190DOPC   H2Y26126  11.488  10.597   5.644  3.2991  1.0961  0.4016
  190DOPC   C2326127  11.483  10.196   5.794  0.2807 -0.6373 -0.4968
  190DOPC   H3R26128  11.381  10.235   5.773  1.0887  1.4792 -0.7771
  190DOPC   H3S26129  11.467  10.086   5.794  0.5443 -0.7427  1.9457
  190DOPC   C2426130  11.582  10.251   5.693 -0.5267 -0.5865  0.2644
  190DOPC   H4R26131  11.683  10.204   5.701  0.0825  0.6322 -0.0957
  190DOPC   H4S26132  11.594  10.359   5.716  1.7862 -0.7796  0.2500
  190DOPC   C2526133  11.543  10.237   5.539 -0.3759 -0.4258  0.4333
  190DOPC   H5R26134  11.449  10.292   5.516  0.6921  0.4756 -2.2400
  190DOPC   H5S26135  11.512  10.132   5.519  1.1294 -0.9559  0.7332
  190DOPC   C2626136  11.652  10.288   5.436 -0.2274 -0.1642 -0.2334
  190DOPC   H6R26137  11.665  10.208   5.360 -2.6341 -0.2151 -0.6521
  190DOPC   H6S26138  11.742  10.293   5.501  1.4326 -1.1799 -2.3373
  190DOPC   C2726139  11.613  10.418   5.362 -0.6783 -0.4004 -0.1503
  190DOPC   H7R26140  11.616  10.492   5.445  1.4680  0.8574 -1.2645
  190DOPC   H7S26141  11.509  10.408   5.324 -0.9008  2.7411 -0.5764
  190DOPC   C2826142  11.708  10.466   5.247  0.0023  0.4427 -0.2962
  190DOPC   H8R26143  11.805  10.477   5.299  0.4853 -0.2901 -1.0314
  190DOPC   H8S26144  11.663  10.566   5.225 -0.4433  0.7712  1.8149
  190DOPC   C2926145  11.715  10.374   5.124  0.0498  0.0090 -0.8911
  190DOPC   H9R26146  11.716  10.266   5.144 -1.2141 -0.1170 -1.4629
  190DOPC  C21026147  11.712  10.421   4.996 -0.0228  0.3566  0.1185
  190DOPC  H10R26148  11.734  10.347   4.917  1.1056 -0.2198  0.9401
  190DOPC  C21126149  11.697  10.566   4.946 -0.3936  0.8488  0.1773
  190DOPC  H11R26150  11.759  10.586   4.856  0.2266 -1.7754 -0.0497
  190DOPC  H11S26151  11.733  10.643   5.018  1.9723  0.8976 -0.9811
  190DOPC  C21226152  11.545  10.588   4.913 -0.1672 -0.1427 -0.8812
  190DOPC  H12R26153  11.478  10.562   4.998 -1.3525 -1.2913 -2.1153
  190DOPC  H12S26154  11.517  10.519   4.831  0.5115  0.3146 -1.5054
  190DOPC  C21326155  11.505  10.729   4.864  0.3188  0.6220 -0.0329
  190DOPC  H13R26156  11.544  10.793   4.946 -1.1286 -1.5705  2.5261
  190DOPC  H13S26157  11.395  10.726   4.875  0.4483 -0.5711  1.2104
  190DOPC  C21426158  11.564  10.754   4.723  0.0995 -0.8641 -0.5099
  190DOPC  H14R26159  11.531  10.668   4.662 -0.1342 -0.5479 -0.8348
  190DOPC  H14S26160  11.675  10.755   4.724  0.1127  0.4630  0.8005
  190DOPC  C21526161  11.511  10.890   4.664 -0.7240  0.1952 -0.0547
  190DOPC  H15R26162  11.547  10.982   4.713 -0.5828  0.1241 -0.0252
  190DOPC  H15S26163  11.400  10.884   4.664 -0.6810 -0.8928 -0.4310
  190DOPC  C21626164  11.557  10.909   4.520  0.1351 -0.5182  0.0575
  190DOPC  H16R26165  11.667  10.899   4.507  0.2907  2.5793 -1.8326
  190DOPC  H16S26166  11.526  11.011   4.490 -0.6930  0.0871  2.6706
  190DOPC  C21726167  11.501  10.807   4.416  0.6475 -0.3927  0.2609
  190DOPC  H17R26168  11.390  10.806   4.418  0.6306 -1.0469 -0.7419
  190DOPC  H17S26169  11.550  10.710   4.437  3.0148  0.3681 -1.3877
  190DOPC  C21826170  11.540  10.846   4.270  0.4216  0.1610 -0.8800
  190DOPC  H18R26171  11.651  10.847   4.271  0.4213 -0.3248 -0.1368
  190DOPC  H18S26172  11.505  10.944   4.232 -0.5937 -0.5887 -1.9346
  190DOPC  H18T26173  11.500  10.759   4.214  0.2141 -0.6525  0.5112
  190DOPC   C3326174  11.300  10.698   5.658  0.2310  0.7088  0.1057
  190DOPC   H3X26175  11.262  10.784   5.717  1.8543  1.1710  0.5021
  190DOPC   H3Y26176  11.261  10.599   5.690  0.8217  0.8877  1.4248
  190DOPC   C3426177  11.258  10.715   5.509 -0.1397 -0.6725 -0.4873
  190DOPC   H4X26178  11.296  10.636   5.442  2.6612  1.2663 -1.3633
  190DOPC   H4Y26179  11.304  10.812   5.482 -0.2131 -0.7647 -0.9506
  190DOPC   C3526180  11.109  10.726   5.493  0.4856 -0.2647 -0.3477
  190DOPC   H5X26181  11.065  10.771   5.585  0.8891 -3.6548  1.6870
  190DOPC   H5Y26182  11.055  10.629   5.487 -0.8665  0.4717 -0.7726
  190DOPC   C3626183  11.057  10.809   5.370  0.7225  0.0225 -0.4455
  190DOPC   H6X26184  10.946  10.804   5.373  0.6097  1.8275  1.8005
  190DOPC   H6Y26185  11.086  10.914   5.393 -1.6911  0.4062  1.3151
  190DOPC   C3726186  11.115  10.758   5.241  0.3695 -0.9076  0.1406
  190DOPC   H7X26187  11.225  10.773   5.248  0.0956  2.4883 -0.9492
  190DOPC   H7Y26188  11.100  10.649   5.228  2.3247 -1.1000 -0.8797
  190DOPC   C3826189  11.067  10.836   5.114  0.3954  0.0734  0.1850
  190DOPC   H8X26190  11.090  10.944   5.126  0.5082 -0.0314  0.9550
  190DOPC   H8Y26191  10.958  10.825   5.098  0.6076 -2.0520 -0.1169
  190DOPC   C3926192  11.121  10.781   4.989  0.1493  0.3970  0.2420
  190DOPC   H9X26193  11.207  10.715   5.008  1.0432  1.9450  1.8632
  190DOPC  C31026194  11.072  10.802   4.865 -0.1191 -0.2009  0.6246
  190DOPC  H10X26195  11.129  10.765   4.779 -0.9442 -1.2843  0.5176
  190DOPC  C31126196  10.967  10.905   4.828 -0.0348 -0.4086  0.1987
  190DOPC  H11X26197  10.891  10.925   4.906 -1.2145 -0.5819 -0.8772
  190DOPC  H11Y26198  10.907  10.860   4.747  1.5417  1.7083 -2.2716
  190DOPC  C31226199  11.025  11.046   4.786  0.7588  0.5589 -0.6058
  190DOPC  H12X26200  11.111  11.059   4.856  1.2189 -0.5418 -0.9432
  190DOPC  H12Y26201  10.952  11.129   4.789 -0.6623 -0.6090 -1.5904
  190DOPC  C31326202  11.094  11.031   4.642  0.9268  0.4880  0.2717
  190DOPC  H13X26203  11.153  11.123   4.620  0.6348  0.4890 -0.5077
  190DOPC  H13Y26204  11.159  10.941   4.643 -2.9623 -2.5333  0.8591
  190DOPC  C31426205  11.003  11.019   4.516  0.5276  0.3210  0.4449
  190DOPC  H14X26206  10.961  10.916   4.516  0.0174  0.4615 -1.9613
  190DOPC  H14Y26207  10.925  11.098   4.511 -3.0493 -3.0003 -0.8792
  190DOPC  C31526208  11.085  11.009   4.386 -0.0022 -0.3806 -0.5131
  190DOPC  H15X26209  11.146  10.916   4.394 -0.8931 -0.8084  2.9721
  190DOPC  H15Y26210  11.149  11.100   4.380 -1.0268  0.4506  0.5533
  190DOPC  C31626211  11.001  11.007   4.262  0.5370 -0.6820 -0.3970
  190DOPC  H16X26212  11.065  10.979   4.175 -0.4820 -4.1718 -0.2171
  190DOPC  H16Y26213  10.931  10.920   4.258  0.9656 -1.0178 -0.7220
  190DOPC  C31726214  10.927  11.136   4.230  0.5841 -0.0136  0.2810
  190DOPC  H17X26215  10.858  11.159   4.313  0.1710  0.2793 -0.1412
  190DOPC  H17Y26216  10.999  11.221   4.225  0.1875  0.4286  1.7217
  190DOPC  C31826217  10.837  11.137   4.109  0.5452  0.2067 -0.6332
  190DOPC  H18X26218  10.895  11.132   4.014  2.5022  0.4073  0.5081
  190DOPC  H18Y26219  10.758  11.060   4.112  1.2232 -0.4748  0.1744
  190DOPC  H18Z26220  10.783  11.234   4.115 -1.7082 -1.0824  2.3052
  191DOPC     N26221   0.748   9.983   6.651  0.2323 -0.1372 -0.2371
  191DOPC   C1226222   0.847   9.890   6.588  0.8495 -0.2991 -0.3227
  191DOPC  H12A26223   0.866   9.802   6.648  1.5140 -0.3114 -0.5341
  191DOPC  H12B26224   0.940   9.944   6.573  0.2981  0.2872 -1.8947
  191DOPC   C1326225   0.625   9.909   6.697 -0.1521 -0.4846  0.9004
  191DOPC  H13A26226   0.647   9.842   6.779  1.7585 -2.1103 -0.8285
  191DOPC  H13B26227   0.563   9.989   6.735 -1.5916  0.9397 -3.7787
  191DOPC  H13C26228   0.570   9.857   6.619  0.5835 -1.1110  0.7862
  191DOPC   C1426229   0.715  10.078   6.541  0.6382 -0.2746 -0.1838
  191DOPC  H14A26230   0.797  10.141   6.511 -0.9598  1.3896 -1.2167
  191DOPC  H14B26231   0.690  10.018   6.455  1.4345 -0.8899 -0.0003
  191DOPC  H14C26232   0.631  10.139   6.570 -2.2820 -1.8560 -4.3686
  191DOPC   C1526233   0.812  10.052   6.769 -0.3754 -0.8087  0.3694
  191DOPC  H15A26234   0.746  10.126   6.810  0.8771 -1.1281  3.2083
  191DOPC  H15B26235   0.901  10.111   6.750 -0.3312 -1.0080 -0.0484
  191DOPC  H15C26236   0.842   9.982   6.846  0.3062 -1.5977 -0.5864
  191DOPC   C1126237   0.809   9.840   6.442  0.0050  0.5302 -1.0330
  191DOPC  H11A26238   0.813   9.916   6.361  1.1319  0.1650 -1.3473
  191DOPC  H11B26239   0.895   9.774   6.417 -1.6215 -1.3959 -1.8959
  191DOPC     P26240   0.668   9.608   6.498  0.0082 -0.4228  0.2570
  191DOPC   O1326241   0.533   9.609   6.552  0.4833 -0.5070  0.2466
  191DOPC   O1426242   0.783   9.579   6.584  0.7965  0.2651 -0.0541
  191DOPC   O1226243   0.685   9.758   6.441  0.3256 -0.3250 -0.2334
  191DOPC   O1126244   0.677   9.506   6.374 -0.2418 -0.1141 -0.0919
  191DOPC    C126245   0.798   9.503   6.291  0.0114 -0.6212 -0.0496
  191DOPC    HA26246   0.812   9.402   6.248 -0.5688 -0.7385  0.0272
  191DOPC    HB26247   0.882   9.528   6.360 -1.9230  2.6649  1.3545
  191DOPC    C226248   0.792   9.612   6.178 -0.2401 -0.1531 -0.7261
  191DOPC    HS26249   0.750   9.702   6.227  2.3140 -0.0807  1.6145
  191DOPC   O2126250   0.711   9.557   6.078 -0.0755  0.0066 -0.0422
  191DOPC   C2126251   0.652   9.649   5.999  0.1942 -0.1246  0.5209
  191DOPC   O2226252   0.631   9.767   6.029  1.1973  0.7036 -0.3060
  191DOPC   C2226253   0.613   9.573   5.871 -0.5556  0.2302 -0.1489
  191DOPC   H2R26254   0.595   9.646   5.789 -0.5136 -1.5591 -1.8215
  191DOPC   H2S26255   0.522   9.513   5.893 -1.2807  1.3220 -0.0587
  191DOPC    C326256   0.937   9.637   6.128 -0.4475 -0.0507 -0.0258
  191DOPC    HX26257   0.979   9.536   6.107  1.3964  0.1316  2.4168
  191DOPC    HY26258   0.997   9.674   6.214 -2.0345  2.3026  0.1567
  191DOPC   O3126259   0.947   9.731   6.018 -0.0105 -0.0554  0.2139
  191DOPC   C3126260   0.956   9.859   6.049 -0.5396  0.5731 -0.0816
  191DOPC   O3226261   0.957   9.900   6.165  0.1041  0.4151 -0.1065
  191DOPC   C3226262   0.973   9.945   5.928 -0.1927 -1.2119 -0.1845
  191DOPC   H2X26263   1.074   9.991   5.937 -0.7588  0.3399 -1.2745
  191DOPC   H2Y26264   0.953   9.901   5.827  1.3451  2.6578 -2.3889
  191DOPC   C2326265   0.730   9.483   5.816 -0.3939  0.1504  0.1078
  191DOPC   H3R26266   0.690   9.383   5.790 -1.3206  1.1015 -2.4485
  191DOPC   H3S26267   0.814   9.466   5.887 -0.7972  2.2566  1.2051
  191DOPC   C2426268   0.805   9.528   5.687 -0.3999 -0.0418  0.3057
  191DOPC   H4R26269   0.862   9.441   5.646  1.9777  0.9275  1.3403
  191DOPC   H4S26270   0.885   9.595   5.725 -0.5351  0.3161 -0.0464
  191DOPC   C2526271   0.719   9.596   5.582  0.3148 -0.0632 -0.0553
  191DOPC   H5R26272   0.670   9.688   5.621  0.3838 -0.1818  0.3134
  191DOPC   H5S26273   0.648   9.527   5.532  1.3061 -0.3196 -1.1402
  191DOPC   C2626274   0.811   9.646   5.470 -0.2684  0.3059 -0.2076
  191DOPC   H6R26275   0.850   9.566   5.404 -0.5317  0.0648 -0.0733
  191DOPC   H6S26276   0.893   9.698   5.524 -1.0279 -0.4283  1.7460
  191DOPC   C2726277   0.747   9.744   5.380  0.4008 -0.1628  0.5391
  191DOPC   H7R26278   0.715   9.831   5.442 -0.8866 -0.3900  0.2357
  191DOPC   H7S26279   0.657   9.693   5.338  0.2279  0.5740 -0.0103
  191DOPC   C2826280   0.843   9.793   5.264  0.7196  0.0853  0.0322
  191DOPC   H8R26281   0.858   9.694   5.216 -1.8745 -1.1249  1.5011
  191DOPC   H8S26282   0.939   9.839   5.296  1.1452  0.2109 -1.3660
  191DOPC   C2926283   0.769   9.883   5.169 -0.3095 -0.3513  0.5710
  191DOPC   H9R26284   0.776   9.990   5.195 -0.4389 -0.5450  1.4236
  191DOPC  C21026285   0.708   9.844   5.052  0.0398 -0.5791 -0.5086
  191DOPC  H10R26286   0.666   9.923   4.988  0.1678  0.3748  0.5599
  191DOPC  C21126287   0.702   9.705   4.998 -0.0775  0.3806 -0.6576
  191DOPC  H11R26288   0.597   9.684   4.968  0.0179  0.7965 -1.3121
  191DOPC  H11S26289   0.728   9.629   5.075 -0.7370 -1.1948 -1.9277
  191DOPC  C21226290   0.794   9.675   4.870  0.3952 -0.4528  1.2150
  191DOPC  H12R26291   0.788   9.568   4.841  1.3530  0.0442 -1.0594
  191DOPC  H12S26292   0.902   9.697   4.885  0.7016  1.1856 -2.3064
  191DOPC  C21326293   0.746   9.752   4.748  0.1319 -0.2944 -0.0812
  191DOPC  H13R26294   0.780   9.857   4.758  2.7554 -1.0994  0.1853
  191DOPC  H13S26295   0.635   9.754   4.738  0.2660  0.1498 -1.7731
  191DOPC  C21426296   0.811   9.702   4.614  0.2714  0.5205 -0.2876
  191DOPC  H14R26297   0.782   9.596   4.599 -0.9418  0.9873 -1.4244
  191DOPC  H14S26298   0.921   9.709   4.632  0.2057  2.7889 -0.4488
  191DOPC  C21526299   0.786   9.781   4.487  0.0576 -0.0750 -0.1122
  191DOPC  H15R26300   0.857   9.752   4.406 -1.0619 -2.5634 -0.3110
  191DOPC  H15S26301   0.793   9.891   4.500 -0.7640  0.0144 -0.3565
  191DOPC  C21626302   0.645   9.750   4.435 -0.6657  0.3110 -0.3710
  191DOPC  H16R26303   0.565   9.779   4.505  1.9090  4.1035  1.2861
  191DOPC  H16S26304   0.645   9.638   4.434 -0.5101  0.2504  1.9528
  191DOPC  C21726305   0.632   9.811   4.293  0.2671 -0.3754 -0.2884
  191DOPC  H17R26306   0.725   9.782   4.240  1.1952 -2.1692  2.1623
  191DOPC  H17S26307   0.614   9.920   4.294 -1.0503 -0.5661 -0.0925
  191DOPC  C21826308   0.511   9.743   4.226  0.2774 -0.9623 -0.0624
  191DOPC  H18R26309   0.525   9.702   4.124  0.9060  0.1783 -0.4455
  191DOPC  H18S26310   0.426   9.814   4.224 -0.8346 -2.1774 -3.9639
  191DOPC  H18T26311   0.482   9.663   4.298  3.1990  0.2361  2.6723
  191DOPC   C3326312   0.879  10.071   5.922 -0.3835  0.1533 -0.0608
  191DOPC   H3X26313   0.916  10.138   6.003  0.1159 -0.8050  0.5209
  191DOPC   H3Y26314   0.772  10.053   5.946 -0.7149 -0.0203 -1.5730
  191DOPC   C3426315   0.878  10.132   5.783  0.0996  0.2570  0.7453
  191DOPC   H4X26316   0.979  10.113   5.739 -0.5293 -1.0032 -0.2208
  191DOPC   H4Y26317   0.857  10.241   5.788  0.4284  0.3535  0.1567
  191DOPC   C3526318   0.772  10.063   5.700 -0.3296 -0.3782  0.7722
  191DOPC   H5X26319   0.673  10.093   5.741  0.5769  1.0133  2.0227
  191DOPC   H5Y26320   0.769   9.953   5.717 -0.6140 -0.8536 -1.9468
  191DOPC   C3626321   0.767  10.111   5.554 -0.3681 -0.4173 -0.2938
  191DOPC   H6X26322   0.861  10.075   5.508 -0.9380 -0.1838 -1.6832
  191DOPC   H6Y26323   0.692  10.042   5.509  1.2112 -1.8457 -0.8138
  191DOPC   C3726324   0.735  10.261   5.537  0.0384  0.3217  0.3629
  191DOPC   H7X26325   0.703  10.305   5.634 -1.0456  2.7124 -0.9836
  191DOPC   H7Y26326   0.820  10.327   5.512  0.4828 -0.0141  0.9763
  191DOPC   C3826327   0.625  10.283   5.425 -0.8663  0.2823  0.5473
  191DOPC   H8X26328   0.529  10.235   5.457 -1.1075 -0.7603 -1.5526
  191DOPC   H8Y26329   0.657  10.223   5.338 -2.3119  0.5759 -0.2282
  191DOPC   C3926330   0.606  10.430   5.391  0.1094  0.7147 -0.2921
  191DOPC   H9X26331   0.585  10.496   5.476  1.4724 -0.2775  0.8631
  191DOPC  C31026332   0.621  10.486   5.269  0.6269  0.3100  0.3971
  191DOPC  H10X26333   0.601  10.594   5.263 -1.5112 -0.0727  0.0535
  191DOPC  C31126334   0.663  10.415   5.139  0.0813  0.5909  0.8548
  191DOPC  H11X26335   0.659  10.305   5.155  2.2896  0.1107 -1.3233
  191DOPC  H11Y26336   0.767  10.436   5.109  0.9105 -0.0175  3.0837
  191DOPC  C31226337   0.564  10.434   5.021 -0.4661  0.2121  0.0443
  191DOPC  H12X26338   0.567  10.540   4.988 -0.6373 -0.0504 -0.8469
  191DOPC  H12Y26339   0.459  10.407   5.046 -0.1543 -1.4773 -0.3593
  191DOPC  C31326340   0.608  10.345   4.902  0.4349  0.4392 -0.3741
  191DOPC  H13X26341   0.715  10.355   4.875  1.3334  1.5466  3.1023
  191DOPC  H13Y26342   0.604  10.240   4.939  1.8561  0.9770  1.3836
  191DOPC  C31426343   0.529  10.366   4.770 -0.1996  0.4797  0.0330
  191DOPC  H14X26344   0.432  10.314   4.784  0.7487 -0.7097  3.0084
  191DOPC  H14Y26345   0.512  10.476   4.765  0.7412  0.7181  1.4588
  191DOPC  C31526346   0.601  10.314   4.643 -0.4403  0.9151  0.3633
  191DOPC  H15X26347   0.627  10.208   4.661 -1.8583  0.8955  2.7881
  191DOPC  H15Y26348   0.700  10.362   4.637 -0.1604  0.2988 -0.0967
  191DOPC  C31626349   0.512  10.330   4.521 -1.0612 -0.6174 -0.0583
  191DOPC  H16X26350   0.415  10.276   4.530 -1.4949  0.0135 -0.7996
  191DOPC  H16Y26351   0.475  10.434   4.535 -2.5751 -0.3985 -4.1560
  191DOPC  C31726352   0.570  10.302   4.382  0.9293 -1.1315  0.1921
  191DOPC  H17X26353   0.669  10.351   4.370  0.0184  0.5857 -0.5772
  191DOPC  H17Y26354   0.576  10.193   4.363 -1.7310 -1.3331  0.1458
  191DOPC  C31826355   0.488  10.370   4.272 -0.0334 -0.9068 -0.0706
  191DOPC  H18X26356   0.505  10.478   4.291 -1.3546 -0.8132  0.7532
  191DOPC  H18Y26357   0.516  10.355   4.165  0.7532  0.0986 -0.0286
  191DOPC  H18Z26358   0.377  10.358   4.278 -0.7742  3.3254 -1.5329
  192DOPC     N26359  10.996   2.962   6.791  0.5719 -0.2008  0.5020
  192DOPC   C1226360  11.069   2.895   6.670 -0.0341 -0.0301  0.7157
  192DOPC  H12A26361  11.174   2.920   6.670  0.5400 -2.2135 -0.8090
  192DOPC  H12B26362  11.030   2.939   6.579  1.2325 -1.8691 -0.8049
  192DOPC   C1326363  10.848   2.960   6.780 -0.2466 -0.5475 -0.5357
  192DOPC  H13A26364  10.821   2.863   6.819  0.8089 -0.5728  0.1707
  192DOPC  H13B26365  10.793   3.035   6.835 -1.3408 -0.5575 -1.5673
  192DOPC  H13C26366  10.815   2.974   6.678 -2.8515 -0.3279  0.2716
  192DOPC   C1426367  11.033   3.101   6.787 -0.4124  0.6360 -0.1895
  192DOPC  H14A26368  11.141   3.103   6.780 -0.2893 -1.2179  0.5655
  192DOPC  H14B26369  10.994   3.152   6.701  0.5463  0.9398 -0.4526
  192DOPC  H14C26370  11.003   3.140   6.883  1.6413 -0.8755  1.1836
  192DOPC   C1526371  11.046   2.893   6.916  0.4884  0.3066  0.2249
  192DOPC  H15A26372  11.152   2.906   6.927  0.7360 -0.4620 -1.0796
  192DOPC  H15B26373  11.020   2.788   6.909 -2.3581  0.9257 -0.0053
  192DOPC  H15C26374  10.987   2.918   7.003  1.0401 -1.4897  1.1665
  192DOPC   C1126375  11.045   2.741   6.655 -0.1695 -0.2256  0.2761
  192DOPC  H11A26376  11.098   2.716   6.560 -1.5771  0.6903 -0.7877
  192DOPC  H11B26377  11.093   2.683   6.737  0.1370 -0.7275 -0.2473
  192DOPC     P26378  10.827   2.710   6.520  0.2806  0.1808  0.1256
  192DOPC   O1326379  10.857   2.837   6.447 -0.2471  0.2930 -0.4629
  192DOPC   O1426380  10.681   2.697   6.544  0.0253  0.3995 -0.0767
  192DOPC   O1226381  10.906   2.703   6.654 -0.1531  0.0809 -0.0723
  192DOPC   O1126382  10.876   2.591   6.431 -0.2346 -0.2195 -0.2005
  192DOPC    C126383  10.908   2.610   6.292 -0.2113 -0.0917  0.0083
  192DOPC    HA26384  10.939   2.513   6.247 -0.1824  0.1977 -0.6057
  192DOPC    HB26385  10.988   2.687   6.280 -0.4290  0.4097  1.5428
  192DOPC    C226386  10.788   2.663   6.205 -0.7921 -0.0351 -0.4507
  192DOPC    HS26387  10.750   2.756   6.251 -0.1914 -0.3458  0.6836
  192DOPC   O2126388  10.684   2.561   6.220  0.4290 -0.0201 -0.2599
  192DOPC   C2126389  10.574   2.593   6.154  0.6559 -0.3596 -0.3800
  192DOPC   O2226390  10.552   2.697   6.094  0.2168 -0.4732 -0.3875
  192DOPC   C2226391  10.476   2.472   6.158  0.1650  1.3226 -0.9965
  192DOPC   H2R26392  10.425   2.461   6.256  0.9382  0.2932 -0.6954
  192DOPC   H2S26393  10.533   2.377   6.153 -0.7313  0.7597 -0.7229
  192DOPC    C326394  10.839   2.675   6.061 -0.0468 -0.2023  0.3631
  192DOPC    HX26395  10.933   2.735   6.060  1.1363 -1.9169  1.7413
  192DOPC    HY26396  10.766   2.722   5.993 -1.6020 -1.3760  1.1585
  192DOPC   O3126397  10.856   2.539   6.002  0.0804 -0.5829 -0.5055
  192DOPC   C3126398  10.961   2.511   5.937  0.2488 -0.1339 -0.2257
  192DOPC   O3226399  11.058   2.583   5.919 -0.0743 -0.0220 -0.1299
  192DOPC   C3226400  10.943   2.366   5.886 -0.0261  0.1077  0.2275
  192DOPC   H2X26401  11.038   2.339   5.835  0.3439  0.0372  0.9331
  192DOPC   H2Y26402  10.941   2.294   5.971  1.4517 -1.6612 -1.1460
  192DOPC   C2326403  10.356   2.455   6.061 -0.5378  0.3161  1.2204
  192DOPC   H3R26404  10.287   2.543   6.068 -1.2273  0.2425 -2.6571
  192DOPC   H3S26405  10.292   2.368   6.087  0.6379 -1.7221 -2.0668
  192DOPC   C2426406  10.402   2.441   5.912  0.1897  0.1560  0.0316
  192DOPC   H4R26407  10.479   2.362   5.899 -1.0134 -0.8389 -1.4060
  192DOPC   H4S26408  10.447   2.540   5.889  1.8355  0.3417  3.4741
  192DOPC   C2526409  10.281   2.415   5.816  0.2057 -0.6155 -0.6801
  192DOPC   H5R26410  10.206   2.490   5.849  1.5105  1.6069 -2.5031
  192DOPC   H5S26411  10.247   2.311   5.835 -0.3881 -0.4798 -0.9615
  192DOPC   C2626412  10.321   2.446   5.672 -0.3169 -0.6385 -0.4974
  192DOPC   H6R26413  10.357   2.551   5.659  1.9670 -1.2362  0.3858
  192DOPC   H6S26414  10.229   2.435   5.611 -0.1962  0.3920 -0.8903
  192DOPC   C2726415  10.433   2.364   5.618  0.2899  0.6250 -0.3899
  192DOPC   H7R26416  10.416   2.258   5.648  4.5576  0.4989  2.6640
  192DOPC   H7S26417  10.527   2.383   5.674  0.9762 -1.1848 -0.8518
  192DOPC   C2826418  10.447   2.372   5.468 -0.0497 -0.6320  0.7897
  192DOPC   H8R26419  10.532   2.302   5.450  0.0726 -0.8476  2.1089
  192DOPC   H8S26420  10.471   2.474   5.433 -2.3875  0.8352  3.1058
  192DOPC   C2926421  10.327   2.330   5.381 -0.3310 -1.0063 -0.4311
  192DOPC   H9R26422  10.233   2.376   5.415 -0.8676 -2.1977 -0.2684
  192DOPC  C21026423  10.325   2.266   5.264 -0.8444  0.4767 -0.6462
  192DOPC  H10R26424  10.230   2.261   5.209 -0.6163  0.3016 -1.0324
  192DOPC  C21126425  10.441   2.203   5.189  0.2700 -0.1518  0.4916
  192DOPC  H11R26426  10.433   2.094   5.174  0.1394 -0.0540 -0.2114
  192DOPC  H11S26427  10.532   2.224   5.250  0.6815  1.5496 -0.6036
  192DOPC  C21226428  10.470   2.241   5.045 -0.5030 -0.6699  0.0032
  192DOPC  H12R26429  10.560   2.190   5.003 -0.9120 -0.2983 -1.3908
  192DOPC  H12S26430  10.502   2.347   5.046  1.4140 -1.1902 -0.8351
  192DOPC  C21326431  10.364   2.203   4.939 -0.2187 -0.0383  0.4739
  192DOPC  H13R26432  10.280   2.275   4.947  0.0642  0.3435  0.0094
  192DOPC  H13S26433  10.323   2.102   4.960  0.5298 -0.1727  1.3306
  192DOPC  C21426434  10.432   2.204   4.806 -0.0282  0.0320  0.0986
  192DOPC  H14R26435  10.347   2.189   4.737 -0.1159  1.3323 -0.0956
  192DOPC  H14S26436  10.508   2.123   4.799  0.2031  0.2435  0.1495
  192DOPC  C21526437  10.500   2.339   4.773  0.3982 -0.2266  0.9675
  192DOPC  H15R26438  10.585   2.358   4.842 -1.9786  0.1028  3.9870
  192DOPC  H15S26439  10.430   2.423   4.789 -0.3193 -0.1051 -2.1550
  192DOPC  C21626440  10.541   2.325   4.629  0.4751 -0.0762  0.1082
  192DOPC  H16R26441  10.458   2.329   4.555  0.2240  1.2850  0.4514
  192DOPC  H16S26442  10.586   2.224   4.614 -0.0177 -0.2677 -0.1245
  192DOPC  C21726443  10.642   2.429   4.580  0.2318  0.3498 -0.0596
  192DOPC  H17R26444  10.729   2.435   4.649  1.2474  0.4255 -1.3190
  192DOPC  H17S26445  10.589   2.525   4.566 -1.2106 -0.4530 -0.2922
  192DOPC  C21826446  10.704   2.405   4.438 -0.0785 -0.6064  0.2180
  192DOPC  H18R26447  10.791   2.472   4.418  0.3854 -1.4831 -0.7855
  192DOPC  H18S26448  10.639   2.418   4.348  1.6253 -1.5397 -1.2152
  192DOPC  H18T26449  10.738   2.300   4.427 -1.7996 -1.0290 -1.8799
  192DOPC   C3326450  10.829   2.346   5.787 -0.6118  0.0862  0.1446
  192DOPC   H3X26451  10.733   2.382   5.831 -1.1892 -2.5660  1.2106
  192DOPC   H3Y26452  10.804   2.239   5.772 -2.1173  0.4570 -0.2422
  192DOPC   C3426453  10.856   2.396   5.644 -0.4706 -0.9023 -0.0732
  192DOPC   H4X26454  10.873   2.505   5.656  1.1952 -1.2849  1.5651
  192DOPC   H4Y26455  10.766   2.374   5.582 -1.5348  0.6850  0.8482
  192DOPC   C3526456  10.987   2.343   5.581  0.0214  0.1234  0.4600
  192DOPC   H5X26457  11.079   2.357   5.641 -0.4981 -0.0185  1.3164
  192DOPC   H5Y26458  11.008   2.411   5.496 -0.9896 -0.8504 -0.6091
  192DOPC   C3626459  10.988   2.199   5.532 -0.2187  0.1439  0.0789
  192DOPC   H6X26460  11.095   2.181   5.507 -0.1770  3.2443 -2.5739
  192DOPC   H6Y26461  10.964   2.123   5.610  5.4483 -0.9193  1.2654
  192DOPC   C3726462  10.887   2.177   5.416 -0.1056 -0.1910 -0.8516
  192DOPC   H7X26463  10.859   2.069   5.417  1.4426 -0.6484 -2.1893
  192DOPC   H7Y26464  10.796   2.238   5.437 -1.4220 -2.3767  0.1401
  192DOPC   C3826465  10.940   2.204   5.277 -0.5944 -0.0650  0.4244
  192DOPC   H8X26466  10.986   2.305   5.266  0.4097 -0.6025 -0.4245
  192DOPC   H8Y26467  10.848   2.195   5.216  1.8290  0.4986 -3.6832
  192DOPC   C3926468  11.043   2.100   5.239 -0.2366  0.6365 -0.4173
  192DOPC   H9X26469  11.140   2.098   5.292  1.6216 -1.6497 -3.5233
  192DOPC  C31026470  11.026   1.994   5.160  0.2294  0.7612 -0.3332
  192DOPC  H10X26471  11.115   1.933   5.138 -0.1023  0.4078 -0.7236
  192DOPC  C31126472  10.905   1.960   5.078 -0.1461 -0.1359  0.0926
  192DOPC  H11X26473  10.842   2.042   5.036 -0.3641  0.0049  0.6900
  192DOPC  H11Y26474  10.830   1.902   5.135 -0.9415 -1.1744 -1.9129
  192DOPC  C31226475  10.954   1.861   4.964 -0.3970  0.5517 -0.8190
  192DOPC  H12X26476  11.000   1.775   5.017 -0.1382  0.4847 -1.1413
  192DOPC  H12Y26477  11.038   1.914   4.913  1.8415 -1.2941  0.7251
  192DOPC  C31326478  10.844   1.811   4.875  0.0569 -0.0707  0.1403
  192DOPC  H13X26479  10.887   1.748   4.795 -0.4319 -1.3066  0.8358
  192DOPC  H13Y26480  10.779   1.744   4.935  0.1751 -1.7801 -1.5411
  192DOPC  C31426481  10.754   1.921   4.812  0.7580 -0.1763  0.6271
  192DOPC  H14X26482  10.683   1.867   4.745  1.5114  0.4952 -0.7423
  192DOPC  H14Y26483  10.691   1.964   4.893 -1.3623 -1.4799 -0.2350
  192DOPC  C31526484  10.831   2.021   4.727  0.7832 -0.6507 -0.5033
  192DOPC  H15X26485  10.897   2.086   4.789 -0.5706 -0.7626  1.1308
  192DOPC  H15Y26486  10.759   2.086   4.673  1.4328 -0.0043 -0.5961
  192DOPC  C31626487  10.913   1.952   4.616  0.3021  0.0235  0.4110
  192DOPC  H16X26488  10.979   1.875   4.660 -0.0054 -1.2857 -1.2968
  192DOPC  H16Y26489  10.835   1.901   4.555  0.2017 -0.7782  1.1931
  192DOPC  C31726490  10.985   2.048   4.525 -0.3193 -0.4009 -0.0988
  192DOPC  H17X26491  10.917   2.128   4.489 -0.4247 -0.4758 -0.0705
  192DOPC  H17Y26492  11.059   2.106   4.582  1.5828  0.3774 -3.1369
  192DOPC  C31826493  11.048   1.979   4.395  0.0009 -0.5200 -0.3874
  192DOPC  H18X26494  11.078   2.068   4.336  0.7309  0.4369  1.3690
  192DOPC  H18Y26495  11.131   1.907   4.411 -0.0760 -0.2166  1.5894
  192DOPC  H18Z26496  10.961   1.924   4.352 -1.5623 -0.2278  2.1864
  193DOPC     N26497   3.339   3.596   5.747 -0.0293 -0.1665  0.2957
  193DOPC   C1226498   3.308   3.472   5.669  0.1898  1.4616 -0.1975
  193DOPC  H12A26499   3.358   3.474   5.574  2.6342  0.9698  0.9903
  193DOPC  H12B26500   3.200   3.460   5.666  0.0228  1.3945  2.8577
  193DOPC   C1326501   3.308   3.594   5.897  0.2893 -0.2306  0.1080
  193DOPC  H13A26502   3.202   3.571   5.900 -0.0229  0.3252 -3.1170
  193DOPC  H13B26503   3.361   3.514   5.947 -2.0015 -1.0419  1.3839
  193DOPC  H13C26504   3.330   3.691   5.939  0.1336 -0.4573  0.7250
  193DOPC   C1426505   3.266   3.712   5.681  0.2269  0.0232  0.2408
  193DOPC  H14A26506   3.163   3.684   5.695  0.4061 -1.7238 -1.4520
  193DOPC  H14B26507   3.280   3.806   5.731 -2.4139  1.0724 -0.8460
  193DOPC  H14C26508   3.283   3.716   5.574  1.7691  0.9707  0.4910
  193DOPC   C1526509   3.481   3.633   5.726 -0.2011 -0.2936  0.2776
  193DOPC  H15A26510   3.498   3.657   5.622  0.8858 -1.0319  0.2661
  193DOPC  H15B26511   3.544   3.549   5.751  2.5644  0.9156 -2.0018
  193DOPC  H15C26512   3.512   3.725   5.772  2.3118 -1.1084  0.3660
  193DOPC   C1126513   3.361   3.341   5.737 -0.2479  0.1158  0.5004
  193DOPC  H11A26514   3.306   3.312   5.829 -0.0122  1.0325  0.9402
  193DOPC  H11B26515   3.338   3.267   5.658 -1.1638  0.4662  0.4308
  193DOPC     P26516   3.569   3.220   5.831  0.1264 -0.1755  0.3920
  193DOPC   O1326517   3.471   3.109   5.848  0.3595  0.1124  0.3234
  193DOPC   O1426518   3.639   3.269   5.949 -0.2743  0.3660  0.1002
  193DOPC   O1226519   3.501   3.345   5.756 -0.3012  0.6222 -0.2477
  193DOPC   O1126520   3.675   3.172   5.721  0.4130 -0.0884  0.2474
  193DOPC    C126521   3.768   3.265   5.672 -0.3380 -0.2637  0.1606
  193DOPC    HA26522   3.855   3.203   5.642 -0.6804 -0.8699  0.4136
  193DOPC    HB26523   3.805   3.336   5.750 -0.8610 -1.8628  1.9380
  193DOPC    C226524   3.716   3.338   5.538  0.8988  0.6237  0.7421
  193DOPC    HS26525   3.649   3.417   5.578 -0.6025 -1.0063  1.5491
  193DOPC   O2126526   3.637   3.245   5.460 -0.1486 -0.0336  0.4718
  193DOPC   C2126527   3.540   3.304   5.387 -0.9770 -0.3075 -0.3784
  193DOPC   O2226528   3.518   3.421   5.391 -0.1415  0.0028 -0.1389
  193DOPC   C2226529   3.461   3.203   5.304 -0.6878 -0.2428  0.3413
  193DOPC   H2R26530   3.358   3.241   5.290 -0.0886  1.4784  0.4322
  193DOPC   H2S26531   3.457   3.110   5.364  0.5238 -1.1601 -0.9272
  193DOPC    C326532   3.826   3.396   5.450 -0.0084  0.1480 -0.0073
  193DOPC    HX26533   3.876   3.480   5.502 -0.8253 -1.1697  3.1063
  193DOPC    HY26534   3.773   3.436   5.360  0.7011  1.3801  0.0941
  193DOPC   O3126535   3.918   3.302   5.396  0.6084 -0.3557 -0.4119
  193DOPC   C3126536   4.049   3.315   5.443  0.4781  0.1351  0.2528
  193DOPC   O3226537   4.088   3.396   5.527 -0.0300  0.2586  0.1021
  193DOPC   C3226538   4.135   3.207   5.379 -0.0958  0.0803  0.0505
  193DOPC   H2X26539   4.160   3.140   5.464 -0.0227  3.2278  2.6996
  193DOPC   H2Y26540   4.071   3.163   5.300 -1.2368  0.1684  0.9099
  193DOPC   C2326541   3.532   3.173   5.168  0.1839  0.1665  0.1546
  193DOPC   H3R26542   3.513   3.070   5.130 -2.3870  0.2817  0.9283
  193DOPC   H3S26543   3.642   3.188   5.175 -0.1062  3.1897 -0.5250
  193DOPC   C2426544   3.490   3.274   5.057  0.1645  0.3134 -0.6452
  193DOPC   H4R26545   3.533   3.375   5.076  2.7887 -0.7921 -0.2786
  193DOPC   H4S26546   3.379   3.271   5.062  0.1446  1.9719  1.0086
  193DOPC   C2526547   3.540   3.238   4.916 -0.0555  0.3552  0.8838
  193DOPC   H5R26548   3.507   3.139   4.877 -0.0917  1.2175 -1.4074
  193DOPC   H5S26549   3.651   3.235   4.921  0.0746 -1.3189 -1.5023
  193DOPC   C2626550   3.503   3.351   4.817  0.2598 -0.2480  0.0075
  193DOPC   H6R26551   3.546   3.444   4.860  0.1703 -0.9275  1.6194
  193DOPC   H6S26552   3.392   3.358   4.813  0.1964 -1.6220 -1.6440
  193DOPC   C2726553   3.554   3.324   4.677 -0.3855  0.2871  0.1770
  193DOPC   H7R26554   3.508   3.236   4.627  0.5691 -0.0486 -0.1195
  193DOPC   H7S26555   3.662   3.300   4.675 -0.2734  0.8464 -0.5888
  193DOPC   C2826556   3.507   3.440   4.586  0.3982  0.3601 -0.3124
  193DOPC   H8R26557   3.555   3.532   4.625  0.9247 -0.0118 -0.0719
  193DOPC   H8S26558   3.397   3.449   4.594  0.2887 -0.6847 -0.4520
  193DOPC   C2926559   3.547   3.401   4.440 -0.4055 -0.7606 -0.2497
  193DOPC   H9R26560   3.652   3.370   4.433 -0.5680 -1.1526 -0.9878
  193DOPC  C21026561   3.480   3.413   4.331  0.3871  0.3582  1.0207
  193DOPC  H10R26562   3.528   3.410   4.231 -2.1477  1.0610 -0.3005
  193DOPC  C21126563   3.336   3.465   4.318  0.0001 -0.3460 -0.6441
  193DOPC  H11R26564   3.342   3.558   4.259  1.8787  1.0319  1.5186
  193DOPC  H11S26565   3.287   3.479   4.417 -2.3911 -2.5902 -1.3979
  193DOPC  C21226566   3.249   3.363   4.232 -0.0277  0.3400  0.2947
  193DOPC  H12R26567   3.262   3.382   4.123  1.7658  1.6274  0.6996
  193DOPC  H12S26568   3.142   3.389   4.249 -0.7313 -2.3557  0.4211
  193DOPC  C21326569   3.263   3.217   4.257  0.6192  0.7741  0.2043
  193DOPC  H13R26570   3.246   3.192   4.363 -1.7505  1.3977  0.0375
  193DOPC  H13S26571   3.369   3.194   4.233  1.0939  0.7466  2.1468
  193DOPC  C21426572   3.166   3.142   4.166 -0.1251 -0.3224  0.2703
  193DOPC  H14R26573   3.181   3.178   4.062  1.1934 -0.4902  0.3791
  193DOPC  H14S26574   3.063   3.175   4.192 -0.1388 -0.0124 -0.1702
  193DOPC  C21526575   3.179   2.991   4.162  0.1996  0.5514 -0.0812
  193DOPC  H15R26576   3.142   2.942   4.070 -0.6741  0.2243  0.4386
  193DOPC  H15S26577   3.283   2.952   4.161 -0.1420 -0.4556  1.0572
  193DOPC  C21626578   3.109   2.924   4.286 -0.2694  0.3509  0.0321
  193DOPC  H16R26579   3.147   2.987   4.369  0.6846  0.4143 -0.4357
  193DOPC  H16S26580   3.148   2.820   4.296  1.9296  1.2155  0.8333
  193DOPC  C21726581   2.958   2.935   4.273  0.1939  0.2006  0.3270
  193DOPC  H17R26582   2.931   2.842   4.218  0.6298 -0.4849  1.2454
  193DOPC  H17S26583   2.925   3.025   4.216 -0.2838 -0.0142  0.2520
  193DOPC  C21826584   2.868   2.936   4.402  0.0132  0.2305 -0.0435
  193DOPC  H18R26585   2.886   3.033   4.452 -1.0180  0.6987 -0.5490
  193DOPC  H18S26586   2.897   2.852   4.469 -0.4913  0.1701  0.0987
  193DOPC  H18T26587   2.761   2.938   4.373  0.0543  0.0898 -0.2152
  193DOPC   C3326588   4.273   3.257   5.326  0.0535  0.5169  0.1380
  193DOPC   H3X26589   4.352   3.265   5.403  0.9066 -2.1878 -0.3506
  193DOPC   H3Y26590   4.269   3.358   5.280  0.5383  1.4543  2.0639
  193DOPC   C3426591   4.323   3.161   5.217 -0.3195  0.0566  0.1855
  193DOPC   H4X26592   4.242   3.115   5.157  0.6365 -0.7855 -0.4867
  193DOPC   H4Y26593   4.376   3.082   5.274  0.9776  1.7853  1.5045
  193DOPC   C3526594   4.416   3.234   5.121 -0.1136  0.8163 -0.7591
  193DOPC   H5X26595   4.452   3.161   5.046  0.9824 -1.6526  1.9595
  193DOPC   H5Y26596   4.501   3.272   5.183  0.8081 -1.3949 -0.5741
  193DOPC   C3626597   4.359   3.355   5.047 -0.0804  0.0187  0.1605
  193DOPC   H6X26598   4.249   3.341   5.043 -0.1886  0.7581  0.3467
  193DOPC   H6Y26599   4.361   3.447   5.110  0.5714 -1.0920  1.8448
  193DOPC   C3726600   4.412   3.381   4.903 -0.6181  0.1623  0.6541
  193DOPC   H7X26601   4.384   3.295   4.838  1.2167  0.3339 -0.4348
  193DOPC   H7Y26602   4.364   3.472   4.861 -0.6303 -1.0797 -2.2818
  193DOPC   C3826603   4.565   3.404   4.899  0.0427  0.4066  0.7147
  193DOPC   H8X26604   4.583   3.415   4.790 -2.4432  0.5687  0.2657
  193DOPC   H8Y26605   4.618   3.311   4.930  1.6587  0.6744 -1.0739
  193DOPC   C3926606   4.596   3.519   4.987 -0.0777 -0.2022 -0.2011
  193DOPC   H9X26607   4.585   3.500   5.095 -1.3599  0.3003 -0.2221
  193DOPC  C31026608   4.636   3.640   4.938 -0.1431 -0.2990  0.3671
  193DOPC  H10X26609   4.648   3.720   5.013  0.2068 -0.3511  0.3711
  193DOPC  C31126610   4.646   3.689   4.797  0.1850 -0.5598  0.4419
  193DOPC  H11X26611   4.560   3.760   4.792  1.8218  1.4712 -0.4142
  193DOPC  H11Y26612   4.610   3.613   4.724 -2.2624  1.3610 -0.5062
  193DOPC  C31226613   4.775   3.755   4.738 -0.1323 -0.1273 -0.2319
  193DOPC  H12X26614   4.832   3.813   4.814  2.5484 -1.9338 -0.6905
  193DOPC  H12Y26615   4.743   3.816   4.651  0.9522  1.0955  0.1954
  193DOPC  C31326616   4.881   3.656   4.675 -0.6254  0.1151  0.5070
  193DOPC  H13X26617   4.970   3.721   4.661 -0.1122 -0.0193  2.8463
  193DOPC  H13Y26618   4.907   3.588   4.758  0.1590  1.3537  1.3085
  193DOPC  C31426619   4.841   3.597   4.541  0.6770 -0.1635 -0.1213
  193DOPC  H14X26620   4.905   3.512   4.513  0.2655  0.1907 -2.3494
  193DOPC  H14Y26621   4.736   3.567   4.561  0.0896  1.1138 -1.1060
  193DOPC  C31526622   4.853   3.695   4.424 -0.3842 -0.2145  0.2298
  193DOPC  H15X26623   4.961   3.718   4.409 -0.9382  1.0845 -2.2275
  193DOPC  H15Y26624   4.788   3.783   4.441  0.4701  0.5898 -0.5294
  193DOPC  C31626625   4.816   3.617   4.293  0.1656 -0.2602  0.3151
  193DOPC  H16X26626   4.897   3.544   4.273 -0.3053 -1.8173  3.4533
  193DOPC  H16Y26627   4.717   3.567   4.300 -0.2453  0.1167 -2.0280
  193DOPC  C31726628   4.805   3.706   4.171 -0.7441 -0.3589 -0.3615
  193DOPC  H17X26629   4.785   3.643   4.082  2.3062  1.0215 -2.1633
  193DOPC  H17Y26630   4.725   3.778   4.199 -1.1620 -1.0237  0.1883
  193DOPC  C31826631   4.940   3.770   4.133 -0.6157 -0.3711  0.3682
  193DOPC  H18X26632   4.933   3.814   4.031 -0.7017 -1.0506  0.0756
  193DOPC  H18Y26633   4.966   3.855   4.199 -0.7351  0.2881 -0.4150
  193DOPC  H18Z26634   5.024   3.697   4.129  0.6491  1.0583 -2.7825
  194DOPC     N26635   0.131   6.827   5.928 -0.3346 -0.7432 -0.1124
  194DOPC   C1226636   0.263   6.846   5.861  0.0217  0.6832  0.5181
  194DOPC  H12A26637   0.264   6.770   5.784 -2.1096  0.8695  0.2606
  194DOPC  H12B26638   0.349   6.829   5.925 -2.1372 -1.0839  3.1591
  194DOPC   C1326639   0.024   6.861   5.834  0.2646  0.7113  0.0564
  194DOPC  H13A26640   0.040   6.957   5.787  1.4192  0.7014  0.4048
  194DOPC  H13B26641   0.032   6.785   5.757 -1.0079  0.6582 -0.0453
  194DOPC  H13C26642  -0.074   6.852   5.877  0.2000  1.3840  0.0570
  194DOPC   C1426643   0.113   6.909   6.054 -0.1763  0.1472 -0.1440
  194DOPC  H14A26644   0.012   6.903   6.092 -0.0916 -1.0280 -0.0927
  194DOPC  H14B26645   0.176   6.876   6.135 -1.1685  1.2756  1.1588
  194DOPC  H14C26646   0.118   7.016   6.037 -0.8486  0.2778  0.4190
  194DOPC   C1526647   0.113   6.684   5.965 -0.2589  0.2078  0.0248
  194DOPC  H15A26648   0.193   6.662   6.035 -0.7828  0.0332  0.5715
  194DOPC  H15B26649   0.125   6.616   5.882  1.7218  0.0568  0.3824
  194DOPC  H15C26650   0.024   6.659   6.020  1.5241 -2.8537  1.8215
  194DOPC   C1126651   0.289   6.974   5.779 -0.0439 -0.4165  0.3221
  194DOPC  H11A26652   0.384   6.963   5.722 -0.7127 -0.6131 -0.7748
  194DOPC  H11B26653   0.212   6.982   5.700 -0.3776  1.2810  0.7625
  194DOPC     P26654   0.402   7.120   5.965  0.4293 -0.5016  0.2861
  194DOPC   O1326655   0.501   7.006   5.957 -0.1765 -0.1029 -0.1400
  194DOPC   O1426656   0.330   7.143   6.095 -0.6348  0.9765  0.0243
  194DOPC   O1226657   0.289   7.098   5.858 -0.1436 -0.3787 -0.6249
  194DOPC   O1126658   0.452   7.259   5.920  0.0595 -0.7765 -0.0559
  194DOPC    C126659   0.369   7.350   5.851  0.2590  0.3464  0.4224
  194DOPC    HA26660   0.409   7.449   5.880  0.3126  1.1191 -2.0681
  194DOPC    HB26661   0.264   7.341   5.885  0.8411 -2.4306  1.7976
  194DOPC    C226662   0.378   7.346   5.701  0.7892  0.5131 -0.3405
  194DOPC    HS26663   0.339   7.245   5.678 -0.0215 -0.9703  5.8263
  194DOPC   O2126664   0.518   7.350   5.663  0.4620 -0.6628 -0.2593
  194DOPC   C2126665   0.547   7.292   5.552  0.2277 -0.1393 -0.0858
  194DOPC   O2226666   0.480   7.222   5.479 -0.6214  0.9816  0.2560
  194DOPC   C2226667   0.703   7.317   5.540 -0.7162  0.6331  0.5056
  194DOPC   H2R26668   0.741   7.215   5.517 -0.3130  1.3324 -2.3160
  194DOPC   H2S26669   0.750   7.349   5.635  1.5278 -2.1399  0.4627
  194DOPC    C326670   0.297   7.461   5.624  0.4621 -0.4834 -0.0792
  194DOPC    HX26671   0.329   7.562   5.656  0.5244 -0.4689 -0.1852
  194DOPC    HY26672   0.196   7.433   5.659  0.4467 -0.5351 -0.1625
  194DOPC   O3126673   0.306   7.455   5.479  0.1185  0.4046 -0.4118
  194DOPC   C3126674   0.207   7.391   5.414 -0.8002  0.1615  1.1217
  194DOPC   O3226675   0.115   7.329   5.468 -0.2627  0.2980  0.6149
  194DOPC   C3226676   0.219   7.413   5.257 -0.2587  0.5025  0.4700
  194DOPC   H2X26677   0.283   7.499   5.228 -0.5745  0.9957  1.2060
  194DOPC   H2Y26678   0.275   7.326   5.217 -0.2938 -0.9204  3.2483
  194DOPC   C2326679   0.729   7.402   5.421 -0.1956  0.0800 -0.0700
  194DOPC   H3R26680   0.833   7.438   5.416 -0.1949  0.1123  0.1713
  194DOPC   H3S26681   0.662   7.490   5.417 -0.0104  0.2086 -0.3762
  194DOPC   C2426682   0.697   7.325   5.292  0.3369  0.0338 -1.3008
  194DOPC   H4R26683   0.587   7.331   5.292  0.1204 -0.6810  2.9699
  194DOPC   H4S26684   0.728   7.219   5.301 -0.1938 -0.1094 -1.1405
  194DOPC   C2526685   0.755   7.378   5.160  0.4698 -0.0213  0.5444
  194DOPC   H5R26686   0.863   7.354   5.146  0.8960  1.7227  0.5708
  194DOPC   H5S26687   0.751   7.489   5.153  2.8620  0.1229  0.6988
  194DOPC   C2626688   0.676   7.332   5.034 -0.3633 -0.1954 -0.7740
  194DOPC   H6R26689   0.570   7.345   5.064 -0.5861 -0.3495 -1.4748
  194DOPC   H6S26690   0.712   7.229   5.015  1.6165  0.8213 -2.9406
  194DOPC   C2726691   0.705   7.426   4.908  0.6238 -0.5672  0.2485
  194DOPC   H7R26692   0.804   7.473   4.922  0.7282 -0.3237 -1.1734
  194DOPC   H7S26693   0.632   7.510   4.903  0.6156 -0.6494 -2.9959
  194DOPC   C2826694   0.701   7.361   4.773  0.8112 -0.1385 -0.3568
  194DOPC   H8R26695   0.610   7.297   4.768  0.3506  0.2688  1.6946
  194DOPC   H8S26696   0.777   7.281   4.777  0.9947 -0.3355 -4.1549
  194DOPC   C2926697   0.721   7.454   4.656 -0.2873  0.4973  0.1022
  194DOPC   H9R26698   0.740   7.556   4.691  1.0749 -0.2610  1.7118
  194DOPC  C21026699   0.745   7.425   4.530 -0.5918  0.1833 -0.6477
  194DOPC  H10R26700   0.759   7.505   4.455 -0.7814  0.3380 -0.5216
  194DOPC  C21126701   0.733   7.291   4.463  0.5912  0.0915 -0.0321
  194DOPC  H11R26702   0.629   7.267   4.430  0.2360  0.9805  0.4133
  194DOPC  H11S26703   0.769   7.211   4.531  0.8066  0.9611  0.9032
  194DOPC  C21226704   0.812   7.265   4.333 -0.8335  0.3642  0.7945
  194DOPC  H12R26705   0.776   7.167   4.294 -0.3885  0.6444 -0.3451
  194DOPC  H12S26706   0.916   7.248   4.366 -0.8024 -2.3822 -0.4567
  194DOPC  C21326707   0.803   7.377   4.230 -0.0717  0.6257 -0.0747
  194DOPC  H13R26708   0.853   7.467   4.271 -0.7252  0.4941  1.0400
  194DOPC  H13S26709   0.697   7.407   4.236 -0.0709  0.4787  0.8128
  194DOPC  C21426710   0.833   7.330   4.089  0.1112 -0.1492  0.0360
  194DOPC  H14R26711   0.769   7.240   4.077 -0.2205  0.1069 -0.1363
  194DOPC  H14S26712   0.937   7.293   4.082 -1.0703 -3.8432 -0.1932
  194DOPC  C21526713   0.809   7.430   3.972  0.1775 -0.0634 -0.5669
  194DOPC  H15R26714   0.840   7.529   4.012 -1.4139  0.1150  0.3152
  194DOPC  H15S26715   0.702   7.418   3.942 -0.0845  1.6288 -0.4047
  194DOPC  C21626716   0.895   7.408   3.851  0.1399  0.2319 -0.5164
  194DOPC  H16R26717   1.003   7.416   3.878  0.2486 -0.1210 -0.8406
  194DOPC  H16S26718   0.874   7.489   3.778 -0.6957  0.9515  0.4894
  194DOPC  C21726719   0.871   7.275   3.774 -0.2618  0.0216  0.4945
  194DOPC  H17R26720   0.761   7.266   3.767 -0.0464 -2.4816 -0.6812
  194DOPC  H17S26721   0.906   7.187   3.832  0.0478 -0.2450 -0.0894
  194DOPC  C21826722   0.934   7.269   3.633  0.5694 -0.1542 -0.1533
  194DOPC  H18R26723   0.881   7.342   3.568  0.0038 -0.4333 -0.0085
  194DOPC  H18S26724   0.908   7.167   3.598 -2.9562  0.5958 -0.0186
  194DOPC  H18T26725   1.045   7.282   3.634  1.1216 -3.6208 -1.3847
  194DOPC   C3326726   0.079   7.432   5.191  0.0559 -0.2720  0.1004
  194DOPC   H3X26727   0.052   7.538   5.211  0.2933  0.2649 -2.1345
  194DOPC   H3Y26728   0.009   7.372   5.252 -0.9411  2.4719  1.8497
  194DOPC   C3426729   0.085   7.406   5.038  0.2911 -0.0394 -0.2652
  194DOPC   H4X26730  -0.019   7.388   5.003 -0.6102 -0.8652  2.5419
  194DOPC   H4Y26731   0.131   7.310   5.008 -1.1642 -1.4396  1.7015
  194DOPC   C3526732   0.143   7.521   4.955  0.1668 -0.1060  0.1097
  194DOPC   H5X26733   0.206   7.577   5.028 -2.3195  0.5442  1.8999
  194DOPC   H5Y26734   0.060   7.592   4.933 -2.0121 -2.1826  1.2040
  194DOPC   C3626735   0.213   7.485   4.826  0.7010 -0.0522  0.0481
  194DOPC   H6X26736   0.253   7.574   4.772  0.7486 -0.4234 -0.5349
  194DOPC   H6Y26737   0.290   7.411   4.856 -0.4095 -2.6363 -2.9087
  194DOPC   C3726738   0.120   7.416   4.728  0.2331 -0.0577 -0.4779
  194DOPC   H7X26739   0.182   7.395   4.638 -0.7339 -0.5771 -1.0458
  194DOPC   H7Y26740   0.094   7.315   4.767  1.1335 -1.2274 -2.7068
  194DOPC   C3826741  -0.012   7.492   4.693  0.2703  0.3801  0.9739
  194DOPC   H8X26742  -0.070   7.506   4.786  0.5937  0.6790  1.1339
  194DOPC   H8Y26743  -0.056   7.417   4.624  2.7276  0.5757 -0.9915
  194DOPC   C3926744   0.015   7.620   4.622 -0.3864 -0.9389 -0.7630
  194DOPC   H9X26745   0.081   7.687   4.678 -0.0533 -1.1517 -0.8986
  194DOPC  C31026746  -0.050   7.666   4.511  0.5396  0.2110 -0.8465
  194DOPC  H10X26747  -0.016   7.764   4.474 -0.7961  0.9934 -0.0705
  194DOPC  C31126748  -0.164   7.587   4.439 -0.0252 -0.1854  0.7766
  194DOPC  H11X26749  -0.241   7.653   4.394  0.6956 -0.1875 -0.4917
  194DOPC  H11Y26750  -0.205   7.511   4.508  0.7118  0.1785  1.6351
  194DOPC  C31226751  -0.107   7.497   4.321  0.2756 -0.8423 -0.7474
  194DOPC  H12X26752  -0.186   7.421   4.304 -0.8419 -0.0032  0.5284
  194DOPC  H12Y26753  -0.011   7.455   4.358 -0.7320 -0.6574  2.2780
  194DOPC  C31326754  -0.059   7.575   4.193  0.7257 -0.2270 -0.8473
  194DOPC  H13X26755  -0.147   7.636   4.161  1.1799  1.7902  1.4843
  194DOPC  H13Y26756   0.022   7.650   4.206 -0.9322  1.6272 -0.7202
  194DOPC  C31426757  -0.017   7.483   4.082  0.4435 -0.7189  0.0470
  194DOPC  H14X26758   0.077   7.427   4.106  0.9107  0.9843  2.6647
  194DOPC  H14Y26759  -0.089   7.400   4.067  0.3018 -0.3366 -1.5029
  194DOPC  C31526760   0.003   7.557   3.951  0.7430 -0.3947 -0.6446
  194DOPC  H15X26761   0.067   7.646   3.967 -0.0559 -0.2457  2.6183
  194DOPC  H15Y26762  -0.096   7.604   3.930  1.6180  0.9755 -1.8749
  194DOPC  C31626763   0.052   7.475   3.830 -0.3576 -0.3058  0.7130
  194DOPC  H16X26764   0.136   7.409   3.862  0.0016  0.7748  2.1013
  194DOPC  H16Y26765  -0.033   7.414   3.791 -0.4889  0.3652 -0.0750
  194DOPC  C31726766   0.106   7.563   3.710  0.2947  0.3195  0.0182
  194DOPC  H17X26767   0.026   7.633   3.678 -1.6493 -0.8846  1.9736
  194DOPC  H17Y26768   0.185   7.632   3.746  0.8963  0.6950 -1.8598
  194DOPC  C31826769   0.159   7.473   3.595 -0.4767  1.0570  0.2504
  194DOPC  H18X26770   0.073   7.416   3.555  0.1407 -0.0559  0.4629
  194DOPC  H18Y26771   0.212   7.537   3.521 -0.9471 -0.1188 -1.1420
  194DOPC  H18Z26772   0.218   7.384   3.626 -1.9992 -0.2396 -0.4186
  195DOPC     N26773   0.343   9.935   6.259 -0.0649  0.0537 -0.2796
  195DOPC   C1226774   0.450   9.970   6.153 -0.0767 -0.0225 -0.3177
  195DOPC  H12A26775   0.411  10.025   6.069  0.1396 -0.3603 -0.6447
  195DOPC  H12B26776   0.476   9.872   6.116  2.2076  0.5834 -0.5169
  195DOPC   C1326777   0.223   9.884   6.185 -0.2773  0.0687 -0.6443
  195DOPC  H13A26778   0.215   9.776   6.183 -1.0662 -0.0688  2.9055
  195DOPC  H13B26779   0.134   9.909   6.241 -0.4748  0.0771 -0.9626
  195DOPC  H13C26780   0.214   9.925   6.086  0.4027 -0.3191 -0.8747
  195DOPC   C1426781   0.307  10.058   6.336 -0.1962 -0.0173  0.1483
  195DOPC  H14A26782   0.240  10.039   6.419  0.4255  0.9927  0.9055
  195DOPC  H14B26783   0.398  10.092   6.384 -0.5482  2.1990 -0.6542
  195DOPC  H14C26784   0.260  10.135   6.277 -1.0738 -1.4899 -1.1350
  195DOPC   C1526785   0.391   9.827   6.357 -1.0425 -1.5048  0.6780
  195DOPC  H15A26786   0.323   9.816   6.440  0.2812 -1.2173  1.8347
  195DOPC  H15B26787   0.490   9.858   6.388 -1.4765  0.8959 -0.1356
  195DOPC  H15C26788   0.411   9.737   6.300  0.0002 -0.2558 -1.0191
  195DOPC   C1126789   0.586  10.026   6.199  0.2740 -0.0847 -0.0748
  195DOPC  H11A26790   0.649   9.945   6.241  1.7539 -0.9097 -3.5587
  195DOPC  H11B26791   0.648  10.047   6.109  1.5888 -1.7866  0.3864
  195DOPC     P26792   0.580  10.290   6.250 -0.1336  0.2271 -0.1908
  195DOPC   O1326793   0.716  10.342   6.272  0.5422  0.0519 -0.0261
  195DOPC   O1426794   0.466  10.360   6.319  0.4204 -0.2083 -0.3274
  195DOPC   O1226795   0.576  10.140   6.292  0.3083  0.1908 -0.7177
  195DOPC   O1126796   0.556  10.289   6.092  0.2334  0.1654  0.2345
  195DOPC    C126797   0.655  10.343   6.001 -0.0608 -0.3741  0.4308
  195DOPC    HA26798   0.662  10.271   5.916 -0.6464  0.6590 -0.5201
  195DOPC    HB26799   0.753  10.364   6.048 -0.3989  0.1513  0.9096
  195DOPC    C226800   0.601  10.477   5.936  0.2388  0.5278  0.1494
  195DOPC    HS26801   0.562  10.537   6.021 -2.3790 -2.1538  1.0027
  195DOPC   O2126802   0.505  10.449   5.836  0.2282 -0.2595 -0.0085
  195DOPC   C2126803   0.399  10.525   5.837 -0.2860  0.1206 -0.2767
  195DOPC   O2226804   0.366  10.594   5.933 -0.0056 -0.4488  0.3169
  195DOPC   C2226805   0.314  10.492   5.714 -0.5835  0.0035  0.5968
  195DOPC   H2R26806   0.333  10.387   5.683 -0.1425  0.2539 -0.0045
  195DOPC   H2S26807   0.354  10.554   5.631  1.9303 -1.0864  0.9054
  195DOPC    C326808   0.714  10.554   5.855  0.4451  0.3861 -0.5564
  195DOPC    HX26809   0.753  10.473   5.790 -0.2154 -1.6645  1.4331
  195DOPC    HY26810   0.806  10.584   5.909 -1.1255  1.9699  1.3927
  195DOPC   O3126811   0.662  10.661   5.771 -0.2689  0.2663 -0.0636
  195DOPC   C3126812   0.671  10.784   5.810 -0.0362 -0.4706 -0.9678
  195DOPC   O3226813   0.710  10.815   5.921 -0.8837 -0.0712  0.5502
  195DOPC   C3226814   0.636  10.885   5.699  0.5366  0.5786  0.0631
  195DOPC   H2X26815   0.538  10.849   5.662  1.4569 -1.5454 -0.5157
  195DOPC   H2Y26816   0.638  10.990   5.736 -1.7592 -0.1253  2.4922
  195DOPC   C2326817   0.161  10.502   5.733 -0.3218 -0.4914 -0.0371
  195DOPC   H3R26818   0.126  10.602   5.768 -0.4727 -1.1001  1.6236
  195DOPC   H3S26819   0.131  10.431   5.813 -0.7071  0.6709  0.8982
  195DOPC   C2426820   0.081  10.467   5.611 -0.2996 -0.3001 -0.1481
  195DOPC   H4R26821  -0.027  10.465   5.637 -0.5743  1.2896 -1.0569
  195DOPC   H4S26822   0.115  10.365   5.582 -0.2187 -0.7880  1.5841
  195DOPC   C2526823   0.101  10.565   5.501  0.1508 -0.3062 -0.1448
  195DOPC   H5R26824   0.207  10.571   5.468  0.4991  2.1957  1.1943
  195DOPC   H5S26825   0.070  10.662   5.544 -0.2466 -1.1772  1.6189
  195DOPC   C2626826   0.026  10.518   5.379 -0.0076 -0.4418  0.1967
  195DOPC   H6R26827  -0.078  10.501   5.415 -0.3136  0.8896 -0.0245
  195DOPC   H6S26828   0.065  10.416   5.357  0.0448 -0.4685  0.4123
  195DOPC   C2726829   0.043  10.609   5.257  0.2517  0.4345 -0.2042
  195DOPC   H7R26830   0.052  10.717   5.284  0.0888  0.0083  1.6522
  195DOPC   H7S26831  -0.051  10.588   5.202  0.5553 -2.1131  0.1647
  195DOPC   C2826832   0.169  10.559   5.183 -0.2810  0.3945  0.6163
  195DOPC   H8R26833   0.145  10.472   5.118  0.8324  0.4758  0.0695
  195DOPC   H8S26834   0.251  10.518   5.246 -0.9365 -3.2210 -0.7041
  195DOPC   C2926835   0.226  10.668   5.088  0.0610  0.4051  0.0092
  195DOPC   H9R26836   0.305  10.730   5.132 -0.1517  1.2574 -0.7792
  195DOPC  C21026837   0.183  10.702   4.968  0.1648 -0.2432 -0.3288
  195DOPC  H10R26838   0.236  10.779   4.909 -1.4244  0.1996 -1.2434
  195DOPC  C21126839   0.061  10.660   4.887 -0.0122  0.0500  0.2621
  195DOPC  H11R26840  -0.013  10.742   4.901  0.4674  1.7417 -4.8799
  195DOPC  H11S26841   0.025  10.561   4.924  1.2435  0.5302  2.9748
  195DOPC  C21226842   0.072  10.662   4.726  0.0007  0.3847 -0.0785
  195DOPC  H12R26843   0.082  10.766   4.687 -0.7372  1.3500  2.1233
  195DOPC  H12S26844  -0.032  10.628   4.706 -1.0293  1.6865  2.4917
  195DOPC  C21326845   0.176  10.570   4.665  0.1522  0.8156  0.4839
  195DOPC  H13R26846   0.168  10.460   4.681 -0.2714  0.4022 -2.1011
  195DOPC  H13S26847   0.275  10.607   4.697  0.6305 -0.5863  0.7013
  195DOPC  C21426848   0.182  10.583   4.506 -0.4162 -0.5066 -0.1485
  195DOPC  H14R26849   0.276  10.538   4.467 -1.1228 -2.2480  0.0521
  195DOPC  H14S26850   0.189  10.691   4.480 -0.5878 -0.1091  1.3624
  195DOPC  C21526851   0.060  10.534   4.437 -0.0377  0.6182  0.3372
  195DOPC  H15R26852   0.071  10.542   4.326  3.0243 -0.0246  0.4957
  195DOPC  H15S26853  -0.023  10.597   4.474 -0.4767  0.1152  0.2175
  195DOPC  C21626854   0.028  10.380   4.456  0.3626 -0.2773  0.1927
  195DOPC  H16R26855   0.012  10.357   4.564 -1.9449 -0.3928 -0.1124
  195DOPC  H16S26856   0.109  10.314   4.420  0.0154 -1.0290  0.7607
  195DOPC  C21726857  -0.109  10.350   4.390  0.2616 -0.3134  0.2865
  195DOPC  H17R26858  -0.117  10.375   4.282  0.1927  0.9714  0.5652
  195DOPC  H17S26859  -0.192  10.406   4.439 -0.7656  0.0265 -1.7244
  195DOPC  C21826860  -0.134  10.198   4.405 -0.2400 -0.3256 -0.7963
  195DOPC  H18R26861  -0.127  10.176   4.514  1.1301  1.9526 -0.3697
  195DOPC  H18S26862  -0.064  10.143   4.340 -1.1461 -1.8454 -0.5495
  195DOPC  H18T26863  -0.240  10.173   4.381 -0.6423 -0.0468  0.5559
  195DOPC   C3326864   0.732  10.871   5.580 -0.1789  0.1490  0.7073
  195DOPC   H3X26865   0.729  10.761   5.567 -3.0823 -0.0876  2.3126
  195DOPC   H3Y26866   0.835  10.896   5.611  0.1679 -0.3275 -0.0289
  195DOPC   C3426867   0.706  10.949   5.449  0.5332  0.6997  0.3860
  195DOPC   H4X26868   0.792  10.917   5.387 -0.9706 -0.5229 -1.1902
  195DOPC   H4Y26869   0.708  11.057   5.473 -1.3855  1.2573 -1.6025
  195DOPC   C3526870   0.578  10.897   5.391  0.3533  0.5443  0.4294
  195DOPC   H5X26871   0.494  10.935   5.454  0.5812  1.2424  0.3260
  195DOPC   H5Y26872   0.579  10.787   5.385 -1.3928  0.4722  0.7695
  195DOPC   C3626873   0.557  10.940   5.248 -0.0307 -0.8197  0.4895
  195DOPC   H6X26874   0.447  10.949   5.236 -0.4274 -2.0589  2.6365
  195DOPC   H6Y26875   0.601  11.041   5.233 -0.9652 -0.4678  0.0335
  195DOPC   C3726876   0.618  10.847   5.139  0.2507 -0.4204 -0.0265
  195DOPC   H7X26877   0.721  10.832   5.178  0.1732  3.3502  2.1405
  195DOPC   H7Y26878   0.568  10.748   5.137 -0.4739 -0.0588  0.1530
  195DOPC   C3826879   0.626  10.908   5.002  0.4806  0.0791  0.0151
  195DOPC   H8X26880   0.676  11.007   5.012 -1.1384  0.9088  0.4158
  195DOPC   H8Y26881   0.523  10.921   4.961  0.4244  0.4985  0.2792
  195DOPC   C3926882   0.705  10.816   4.915 -0.6141 -0.7738  0.9871
  195DOPC   H9X26883   0.790  10.769   4.967  0.5455 -0.0198 -0.1604
  195DOPC  C31026884   0.705  10.815   4.775 -0.1330  0.3503 -0.4660
  195DOPC  H10X26885   0.782  10.760   4.720  0.0529  0.9688 -0.8327
  195DOPC  C31126886   0.603  10.891   4.691 -0.1342  0.1434 -0.3338
  195DOPC  H11X26887   0.647  10.968   4.623  1.0609 -0.7614 -0.6179
  195DOPC  H11Y26888   0.547  10.962   4.756  0.1028  0.8863 -0.9320
  195DOPC  C31226889   0.507  10.800   4.607  0.2373  0.5925  0.9697
  195DOPC  H12X26890   0.430  10.876   4.581  0.3958  1.0969  1.9193
  195DOPC  H12Y26891   0.465  10.716   4.667 -0.0873 -0.9192 -1.2541
  195DOPC  C31326892   0.568  10.727   4.490  0.1269 -0.8122  0.2258
  195DOPC  H13X26893   0.637  10.647   4.522  0.8459 -0.2444  0.1123
  195DOPC  H13Y26894   0.487  10.703   4.418 -0.7317 -3.7180  1.9882
  195DOPC  C31426895   0.655  10.817   4.406 -0.6563 -0.5872 -0.1037
  195DOPC  H14X26896   0.592  10.897   4.362 -0.9576 -0.4279  0.6000
  195DOPC  H14Y26897   0.740  10.867   4.456 -1.3423 -1.5583  2.1867
  195DOPC  C31526898   0.710  10.729   4.286 -0.2349  0.8846 -0.0387
  195DOPC  H15X26899   0.625  10.674   4.242 -0.9013  0.9674  1.1268
  195DOPC  H15Y26900   0.776  10.646   4.319  0.8043  1.3738 -0.8260
  195DOPC  C31626901   0.785  10.811   4.175 -0.1094  0.7197 -0.0938
  195DOPC  H16X26902   0.711  10.890   4.153 -0.2637  0.2598 -1.2918
  195DOPC  H16Y26903   0.874  10.855   4.224 -0.6245 -0.0357  1.5842
  195DOPC  C31726904   0.821  10.724   4.049 -0.4660 -0.0970 -0.2591
  195DOPC  H17X26905   0.735  10.687   3.990  0.8589 -1.1382 -1.6499
  195DOPC  H17Y26906   0.878  10.796   3.986 -1.6788  2.7765  1.7698
  195DOPC  C31826907   0.903  10.593   4.076  0.2399 -0.2339 -0.2742
  195DOPC  H18X26908   0.911  10.536   3.981 -0.6814  1.9343 -1.7475
  195DOPC  H18Y26909   1.002  10.619   4.118 -1.4494  1.6140  2.9371
  195DOPC  H18Z26910   0.848  10.529   4.148 -0.1455 -1.3069 -1.4864
  196DOPC     N26911   1.686   6.420   6.346  0.5676 -0.4865 -0.3811
  196DOPC   C1226912   1.704   6.557   6.292  0.1183  0.1633  0.1353
  196DOPC  H12A26913   1.801   6.588   6.330  0.2534  1.5973 -1.2713
  196DOPC  H12B26914   1.634   6.630   6.330  1.2338  2.1784 -1.4484
  196DOPC   C1326915   1.769   6.321   6.269  0.2562  0.2441  0.0423
  196DOPC  H13A26916   1.750   6.315   6.163 -0.9941  2.6242  0.0595
  196DOPC  H13B26917   1.871   6.354   6.254  0.3410 -0.6684 -1.5473
  196DOPC  H13C26918   1.770   6.223   6.312  0.5012  0.0850 -0.3228
  196DOPC   C1426919   1.538   6.384   6.349  0.7140  0.5569  0.2343
  196DOPC  H14A26920   1.513   6.303   6.415 -0.4223  0.1791 -0.6317
  196DOPC  H14B26921   1.481   6.469   6.386 -0.6456  0.0003 -0.5355
  196DOPC  H14C26922   1.497   6.354   6.254 -1.7407 -0.9559  1.6887
  196DOPC   C1526923   1.732   6.418   6.486 -0.1112  0.1935  0.5170
  196DOPC  H15A26924   1.668   6.475   6.553  0.6745  0.4828  1.0419
  196DOPC  H15B26925   1.837   6.440   6.497  0.1985 -1.8390  2.2579
  196DOPC  H15C26926   1.730   6.314   6.513  2.2842 -0.9108 -3.0032
  196DOPC   C1126927   1.700   6.573   6.134  0.0514 -0.0578  0.1185
  196DOPC  H11A26928   1.605   6.526   6.100  0.3412 -0.6223  0.0721
  196DOPC  H11B26929   1.695   6.681   6.111  2.2893 -0.2558 -1.6810
  196DOPC     P26930   1.946   6.583   6.060 -0.1011  0.0181 -0.1879
  196DOPC   O1326931   2.048   6.499   6.125  0.2127  0.4376 -0.0860
  196DOPC   O1426932   1.931   6.727   6.089  0.0337 -0.1548 -0.2172
  196DOPC   O1226933   1.806   6.509   6.062  0.0058 -0.6275 -0.1234
  196DOPC   O1126934   1.983   6.576   5.915  0.4473 -0.0596  0.3930
  196DOPC    C126935   2.017   6.458   5.842  0.0425 -0.0242  0.2275
  196DOPC    HA26936   1.939   6.379   5.853 -0.3319  0.1895 -0.7703
  196DOPC    HB26937   2.099   6.403   5.893 -1.4451  0.0538  2.8616
  196DOPC    C226938   2.049   6.498   5.692  0.6028  0.0121 -0.2621
  196DOPC    HS26939   2.075   6.404   5.638 -3.3649 -2.5007  1.7581
  196DOPC   O2126940   2.154   6.597   5.688 -0.0486 -0.6337 -0.6231
  196DOPC   C2126941   2.269   6.548   5.729 -0.8899  0.5364  0.4071
  196DOPC   O2226942   2.298   6.432   5.765  0.0923 -0.1888  0.4942
  196DOPC   C2226943   2.381   6.654   5.700 -0.1763  0.0875 -0.6464
  196DOPC   H2R26944   2.378   6.716   5.792 -1.5946 -0.6954 -0.1412
  196DOPC   H2S26945   2.350   6.713   5.611 -0.1338  0.3645 -0.4793
  196DOPC    C326946   1.928   6.560   5.620  0.3688 -0.1882 -0.3494
  196DOPC    HX26947   1.901   6.653   5.675 -0.1719 -1.9095  2.5204
  196DOPC    HY26948   1.845   6.486   5.625  0.3316 -0.1089  0.2120
  196DOPC   O3126949   1.960   6.585   5.481  0.0592  0.1107 -0.7008
  196DOPC   C3126950   1.988   6.713   5.448 -0.1453  0.5370  0.2783
  196DOPC   O3226951   1.990   6.806   5.526  0.0666 -0.0907 -0.7467
  196DOPC   C3226952   2.011   6.735   5.305 -0.1238  0.3427  0.0941
  196DOPC   H2X26953   2.041   6.842   5.291  3.0548 -0.5533 -0.7587
  196DOPC   H2Y26954   2.082   6.658   5.269 -1.5340 -0.9747  0.0285
  196DOPC   C2326955   2.516   6.584   5.692  1.2205  0.9697 -0.4666
  196DOPC   H3R26956   2.526   6.523   5.599 -0.4910  1.3139 -0.9209
  196DOPC   H3S26957   2.522   6.520   5.783 -0.2760  0.4342 -0.7098
  196DOPC   C2426958   2.638   6.668   5.685 -0.3373  0.0182  0.0208
  196DOPC   H4R26959   2.739   6.624   5.668  0.4928  1.1967  1.5065
  196DOPC   H4S26960   2.654   6.722   5.781 -1.7146  0.0884  0.2201
  196DOPC   C2526961   2.618   6.783   5.580 -0.1525 -0.0861 -0.1164
  196DOPC   H5R26962   2.581   6.878   5.626 -0.2240 -0.4251  0.5399
  196DOPC   H5S26963   2.539   6.756   5.506 -0.8250  0.4289  0.3901
  196DOPC   C2626964   2.747   6.819   5.501 -0.1977  0.1708 -0.7410
  196DOPC   H6R26965   2.797   6.726   5.469  0.7734  0.0081  1.1439
  196DOPC   H6S26966   2.819   6.865   5.572  0.2838 -0.0898 -1.0582
  196DOPC   C2726967   2.734   6.922   5.384  0.6181  0.9442 -0.6575
  196DOPC   H7R26968   2.726   7.022   5.432  0.4307 -0.1972  1.8533
  196DOPC   H7S26969   2.637   6.908   5.331 -0.4858  0.2998  1.4282
  196DOPC   C2826970   2.856   6.922   5.297 -0.5839 -0.3503 -0.0399
  196DOPC   H8R26971   2.948   6.965   5.342  0.0995  0.6552 -2.2078
  196DOPC   H8S26972   2.853   7.005   5.223  2.6094  0.4540  0.5912
  196DOPC   C2926973   2.890   6.793   5.232  0.0265 -0.4920  0.4436
  196DOPC   H9R26974   2.940   6.720   5.296  0.8823  0.5156  0.9450
  196DOPC  C21026975   2.878   6.751   5.103  0.7146  0.9659  0.7634
  196DOPC  H10R26976   2.918   6.653   5.073  3.0979  2.5027 -1.4505
  196DOPC  C21126977   2.817   6.839   4.994  0.2271 -0.1373  0.3832
  196DOPC  H11R26978   2.852   6.944   5.007 -1.3699  0.3667  0.7651
  196DOPC  H11S26979   2.707   6.841   5.004  0.1711 -1.9222  0.4821
  196DOPC  C21226980   2.847   6.793   4.848 -0.4908 -0.6260 -0.1623
  196DOPC  H12R26981   2.808   6.689   4.857 -0.6408 -0.3952  2.9595
  196DOPC  H12S26982   2.957   6.791   4.832 -0.3310  3.0098 -0.3097
  196DOPC  C21326983   2.781   6.872   4.729 -0.3682  0.5622 -0.3146
  196DOPC  H13R26984   2.795   6.983   4.732 -1.7575  0.8569 -2.4850
  196DOPC  H13S26985   2.672   6.856   4.740  0.0032 -0.7283  2.2194
  196DOPC  C21426986   2.816   6.814   4.593  0.4493 -0.4769  0.4190
  196DOPC  H14R26987   2.823   6.704   4.586 -3.3071 -0.7947 -0.8957
  196DOPC  H14S26988   2.908   6.868   4.564 -0.2438 -0.5960 -2.2329
  196DOPC  C21526989   2.724   6.854   4.476  0.4758  0.1546  0.5538
  196DOPC  H15R26990   2.636   6.786   4.483  0.7800 -0.3112 -0.0874
  196DOPC  H15S26991   2.775   6.836   4.380 -0.2033  1.5749 -0.1063
  196DOPC  C21626992   2.679   7.001   4.493 -0.9173 -0.1029  0.0374
  196DOPC  H16R26993   2.776   7.054   4.501 -0.0774 -1.0159 -2.8345
  196DOPC  H16S26994   2.617   7.022   4.583 -0.2501 -0.4117  0.5722
  196DOPC  C21726995   2.613   7.055   4.362 -0.1254  0.0477  0.1304
  196DOPC  H17R26996   2.581   7.155   4.399  1.3171  0.3837  0.5203
  196DOPC  H17S26997   2.522   6.997   4.334  0.0119 -0.6200  1.0174
  196DOPC  C21826998   2.701   7.061   4.243 -0.7912 -0.2234 -0.1516
  196DOPC  H18R26999   2.789   7.123   4.268 -0.8213 -0.6374  1.0563
  196DOPC  H18S27000   2.649   7.111   4.159 -0.8069  0.9889  0.5565
  196DOPC  H18T27001   2.723   6.957   4.210 -2.5446 -0.4177 -0.8058
  196DOPC   C3327002   1.871   6.723   5.233  0.4149 -0.1856 -0.4120
  196DOPC   H3X27003   1.807   6.799   5.284  2.0133  0.8528  0.1027
  196DOPC   H3Y27004   1.809   6.633   5.254  0.5743 -0.5055 -1.2694
  196DOPC   C3427005   1.866   6.737   5.080 -0.6957  0.4714 -0.3764
  196DOPC   H4X27006   1.869   6.845   5.056  0.2092  0.3704 -0.7414
  196DOPC   H4Y27007   1.768   6.696   5.045  0.6581 -1.6137 -1.9734
  196DOPC   C3527008   1.966   6.659   4.994 -0.2297 -0.0471  0.0403
  196DOPC   H5X27009   1.962   6.550   5.015 -2.7871 -0.4401 -2.0198
  196DOPC   H5Y27010   2.070   6.690   5.016  0.0306 -0.8465 -0.0338
  196DOPC   C3627011   1.942   6.677   4.842 -0.2590 -0.3331 -0.5194
  196DOPC   H6X27012   1.947   6.786   4.823  0.8112 -0.3077 -0.1631
  196DOPC   H6Y27013   2.030   6.631   4.792  0.7857  2.2215 -1.1803
  196DOPC   C3727014   1.824   6.594   4.794  0.1525 -0.5588 -0.4850
  196DOPC   H7X27015   1.831   6.497   4.847  2.6992  0.2026  0.7522
  196DOPC   H7Y27016   1.730   6.647   4.820 -0.2047 -1.7023  0.6302
  196DOPC   C3827017   1.816   6.559   4.640  0.3886  0.0562 -0.2565
  196DOPC   H8X27018   1.731   6.492   4.613  0.9202 -0.1940 -1.3899
  196DOPC   H8Y27019   1.907   6.496   4.628 -0.1450 -0.7198 -0.2975
  196DOPC   C3927020   1.815   6.687   4.553 -0.4526 -0.0623  0.0999
  196DOPC   H9X27021   1.797   6.783   4.603  0.4177  0.8943 -1.3437
  196DOPC  C31027022   1.858   6.685   4.424 -0.5477 -0.7086 -0.2523
  196DOPC  H10X27023   1.865   6.784   4.376 -2.0210 -0.7801 -0.6375
  196DOPC  C31127024   1.914   6.569   4.346 -0.0781 -0.0252 -0.6112
  196DOPC  H11X27025   1.935   6.490   4.422 -1.7533  3.2389  3.6914
  196DOPC  H11Y27026   2.011   6.596   4.301 -1.0666  3.3180 -0.9994
  196DOPC  C31227027   1.819   6.517   4.235 -0.2024 -0.6058 -0.3368
  196DOPC  H12X27028   1.799   6.597   4.160  2.4355 -1.6147 -2.2290
  196DOPC  H12Y27029   1.723   6.487   4.283 -2.6729  1.9954 -3.1554
  196DOPC  C31327030   1.875   6.383   4.180  0.3206 -0.5124 -0.8138
  196DOPC  H13X27031   1.971   6.405   4.128  1.0840 -0.2656  0.6558
  196DOPC  H13Y27032   1.895   6.317   4.266 -1.5386 -0.8882 -0.6263
  196DOPC  C31427033   1.789   6.300   4.086  0.0739 -0.1941 -0.1006
  196DOPC  H14X27034   1.841   6.203   4.071 -1.8982 -0.9213 -3.1102
  196DOPC  H14Y27035   1.693   6.279   4.139  0.0184 -0.9161 -0.4810
  196DOPC  C31527036   1.755   6.360   3.948  0.3973 -0.4947  0.3773
  196DOPC  H15X27037   1.847   6.411   3.912 -0.6440  2.7672  1.8690
  196DOPC  H15Y27038   1.678   6.439   3.963 -0.4267 -1.1852 -0.1426
  196DOPC  C31627039   1.703   6.258   3.849 -0.0465 -0.6791  0.7709
  196DOPC  H16X27040   1.791   6.192   3.833  1.4243  1.4195 -0.3511
  196DOPC  H16Y27041   1.617   6.195   3.882 -0.1247 -1.2621 -0.4674
  196DOPC  C31727042   1.673   6.323   3.709 -0.3706  0.1459  0.5736
  196DOPC  H17X27043   1.591   6.396   3.728 -0.6575 -0.4452  1.7282
  196DOPC  H17Y27044   1.757   6.388   3.676 -0.6869  0.1485 -0.2366
  196DOPC  C31827045   1.640   6.218   3.604  0.5427  0.2382  0.0737
  196DOPC  H18X27046   1.552   6.153   3.624 -0.1185  0.6352 -1.3660
  196DOPC  H18Y27047   1.618   6.275   3.511 -3.0921 -0.0378  0.5877
  196DOPC  H18Z27048   1.727   6.155   3.579  0.2903 -0.5317  1.1003
  197DOPC     N27049   1.555  10.575   6.410  0.5762 -0.1649  0.2793
  197DOPC   C1227050   1.639  10.593   6.283 -0.4059 -0.0144  0.8652
  197DOPC  H12A27051   1.736  10.550   6.304 -0.3872 -1.8142 -2.2993
  197DOPC  H12B27052   1.667  10.697   6.269  1.3051 -0.5278  0.1601
  197DOPC   C1327053   1.417  10.624   6.384 -0.1435  0.4888 -0.6371
  197DOPC  H13A27054   1.435  10.729   6.364  0.3765  0.2429 -1.5039
  197DOPC  H13B27055   1.370  10.572   6.302  1.2195 -0.4180 -0.8728
  197DOPC  H13C27056   1.354  10.615   6.471 -1.6566  0.2042 -1.7154
  197DOPC   C1427057   1.626  10.648   6.520 -0.1600  0.2268  0.5295
  197DOPC  H14A27058   1.629  10.755   6.511 -0.0648  0.1850  0.0270
  197DOPC  H14B27059   1.582  10.614   6.612 -1.2925 -1.7848 -0.6661
  197DOPC  H14C27060   1.731  10.621   6.527  0.0681  1.1421  0.6844
  197DOPC   C1527061   1.552  10.429   6.447 -0.7272  0.0615  0.6041
  197DOPC  H15A27062   1.478  10.406   6.523 -1.7341 -0.3121 -0.4637
  197DOPC  H15B27063   1.652  10.400   6.473 -0.1709  1.6530  0.3759
  197DOPC  H15C27064   1.528  10.382   6.353  0.9876 -0.3905  0.3631
  197DOPC   C1127065   1.582  10.530   6.156 -0.0004  0.1206 -0.6009
  197DOPC  H11A27066   1.501  10.598   6.122  0.9127  1.5220 -0.0555
  197DOPC  H11B27067   1.658  10.544   6.076  1.1823  1.6963  0.7383
  197DOPC     P27068   1.628  10.275   6.149  0.1980  0.0813  0.5684
  197DOPC   O1327069   1.583  10.176   6.244  0.5557  0.1142 -0.3160
  197DOPC   O1427070   1.770  10.316   6.162  0.1713  0.0594  0.0416
  197DOPC   O1227071   1.538  10.394   6.167 -0.2215 -0.3938  0.1066
  197DOPC   O1127072   1.588  10.239   5.999 -0.1596  0.4467 -0.5046
  197DOPC    C127073   1.453  10.247   5.946  1.0198 -1.3985 -0.7444
  197DOPC    HA27074   1.429  10.353   5.922 -1.2533 -2.2075 -2.4479
  197DOPC    HB27075   1.381  10.215   6.025  1.8896 -0.1291  0.6215
  197DOPC    C227076   1.414  10.168   5.826 -0.0361 -0.0574  0.7775
  197DOPC    HS27077   1.369  10.068   5.841 -1.5672  0.0471 -2.3357
  197DOPC   O2127078   1.533  10.145   5.746 -0.0115 -0.8142  0.3725
  197DOPC   C2127079   1.614  10.053   5.780  0.9448  0.1773  0.0716
  197DOPC   O2227080   1.603   9.973   5.873 -0.0274  0.4100  0.1237
  197DOPC   C2227081   1.737  10.072   5.689 -0.0880  0.8257 -0.8283
  197DOPC   H2R27082   1.807  10.110   5.766 -0.7830  0.3802  0.0469
  197DOPC   H2S27083   1.708  10.142   5.608  0.1413  0.8407 -0.8956
  197DOPC    C327084   1.295  10.237   5.752  0.0083 -0.0674  0.3987
  197DOPC    HX27085   1.330  10.341   5.738 -2.4952  0.9405  1.1996
  197DOPC    HY27086   1.216  10.252   5.827 -0.1990  0.1880  0.1291
  197DOPC   O3127087   1.253  10.164   5.635  0.4619 -0.1640  0.1745
  197DOPC   C3127088   1.285  10.212   5.519 -0.1775 -0.0316 -0.5102
  197DOPC   O3227089   1.365  10.307   5.501  0.2351  0.4023 -0.4473
  197DOPC   C3227090   1.200  10.156   5.406  0.3071 -0.1298  0.6096
  197DOPC   H2X27091   1.280  10.143   5.330  0.0524 -1.4763  0.5531
  197DOPC   H2Y27092   1.158  10.058   5.435  0.5280 -0.7177 -0.9586
  197DOPC   C2327093   1.797   9.936   5.626 -0.3340  0.0611  0.1959
  197DOPC   H3R27094   1.806   9.856   5.703 -2.4616 -0.9092 -0.4912
  197DOPC   H3S27095   1.894   9.975   5.590 -1.5036  0.8201 -2.3578
  197DOPC   C2427096   1.734   9.881   5.500  0.8233  0.3312  0.3589
  197DOPC   H4R27097   1.647   9.817   5.528  1.3778  0.2078  1.9156
  197DOPC   H4S27098   1.803   9.824   5.435 -1.1255  0.1658 -1.6685
  197DOPC   C2527099   1.657   9.988   5.417  0.2993  0.6856 -0.1220
  197DOPC   H5R27100   1.736  10.065   5.400  0.5475  0.1206 -1.6775
  197DOPC   H5S27101   1.573  10.045   5.462 -0.1313  0.5511 -0.7460
  197DOPC   C2627102   1.600   9.932   5.283 -0.1532 -0.8643 -0.3709
  197DOPC   H6R27103   1.507   9.873   5.300  0.0966 -0.6122  2.1415
  197DOPC   H6S27104   1.677   9.874   5.228 -0.0927 -0.8788 -0.2709
  197DOPC   C2727105   1.564  10.050   5.189  0.1949  0.3030 -0.4736
  197DOPC   H7R27106   1.659  10.102   5.164  0.1196  0.0933 -1.2147
  197DOPC   H7S27107   1.489  10.112   5.243 -0.5992 -2.3022  1.6453
  197DOPC   C2827108   1.497   9.998   5.058  0.3097  1.2408 -0.2749
  197DOPC   H8R27109   1.403   9.946   5.086  1.9608 -1.8009  0.1223
  197DOPC   H8S27110   1.564   9.916   5.023 -0.3602  0.4493  0.2609
  197DOPC   C2927111   1.471  10.100   4.948  0.3348 -0.1644 -0.1340
  197DOPC   H9R27112   1.392  10.171   4.977  1.3166  1.1127 -0.4968
  197DOPC  C21027113   1.516  10.100   4.827 -0.3105 -0.0730  0.0648
  197DOPC  H10R27114   1.485  10.175   4.753 -0.9856 -1.4662 -1.1350
  197DOPC  C21127115   1.614   9.998   4.769 -0.1458 -0.1811 -0.3644
  197DOPC  H11R27116   1.554   9.910   4.739 -0.4383 -0.1371  0.0829
  197DOPC  H11S27117   1.681   9.967   4.852  0.2979  1.0077 -0.2600
  197DOPC  C21227118   1.702  10.049   4.650 -0.2402 -0.3910 -0.2652
  197DOPC  H12R27119   1.808  10.018   4.661  0.4384  2.0493  0.6532
  197DOPC  H12S27120   1.698  10.160   4.649 -1.4826 -0.4112 -2.1195
  197DOPC  C21327121   1.660  10.008   4.509  0.3779 -0.2758  0.8468
  197DOPC  H13R27122   1.563  10.057   4.483  0.3747 -0.7831 -0.1161
  197DOPC  H13S27123   1.650   9.898   4.516  0.9325 -0.3944 -0.1819
  197DOPC  C21427124   1.782  10.039   4.425  0.1822 -0.6952  0.1191
  197DOPC  H14R27125   1.851   9.952   4.425  0.1528 -0.7210 -0.4343
  197DOPC  H14S27126   1.839  10.125   4.468  2.0056 -1.6320 -0.2953
  197DOPC  C21527127   1.759  10.071   4.283  0.4779 -0.1068 -0.0864
  197DOPC  H15R27128   1.860  10.089   4.242  0.9228 -2.0324  0.0789
  197DOPC  H15S27129   1.701  10.165   4.276 -0.8246 -0.8586  0.2226
  197DOPC  C21627130   1.692   9.955   4.209  0.0032  0.0050  0.0534
  197DOPC  H16R27131   1.608   9.914   4.268 -0.1716 -2.0166 -1.4817
  197DOPC  H16S27132   1.758   9.868   4.189  1.5000  1.3493 -1.1763
  197DOPC  C21727133   1.661   9.999   4.067 -0.2253 -0.2583  0.4009
  197DOPC  H17R27134   1.585  10.079   4.065 -0.1286 -0.1112  1.8160
  197DOPC  H17S27135   1.609   9.914   4.018 -2.7156  1.1136  0.5459
  197DOPC  C21827136   1.776  10.035   3.969  0.0265 -0.0876  0.4567
  197DOPC  H18R27137   1.736  10.043   3.865 -0.4894  1.0112  0.7322
  197DOPC  H18S27138   1.852   9.954   3.973  1.7204  1.5143  1.8067
  197DOPC  H18T27139   1.821  10.132   3.997  0.1168 -0.2933  1.0420
  197DOPC   C3327140   1.093  10.258   5.353  0.1516 -0.5787 -0.0645
  197DOPC   H3X27141   1.152  10.348   5.326  1.1110 -1.3304 -0.5177
  197DOPC   H3Y27142   1.024  10.295   5.432 -1.0107  1.8813 -2.0823
  197DOPC   C3427143   1.017  10.216   5.227  0.1471  0.2469 -0.2297
  197DOPC   H4X27144   0.949  10.298   5.194  1.3339  0.6759 -1.7294
  197DOPC   H4Y27145   0.951  10.130   5.252 -0.1202  0.7801  0.9711
  197DOPC   C3527146   1.118  10.189   5.115 -0.1250 -0.7247 -0.0278
  197DOPC   H5X27147   1.193  10.115   5.151  0.2562  0.3648  1.5568
  197DOPC   H5Y27148   1.159  10.287   5.081 -1.9947 -0.0438 -0.4447
  197DOPC   C3627149   1.056  10.116   4.992  0.2093  0.4165 -0.0857
  197DOPC   H6X27150   1.148  10.096   4.934  1.5102  2.2565  1.2067
  197DOPC   H6Y27151   1.000  10.026   5.026  1.4582  0.3240  1.8856
  197DOPC   C3727152   0.967  10.203   4.904  0.9856 -0.4120  0.1104
  197DOPC   H7X27153   0.893  10.254   4.968  0.3669  0.6729 -1.3990
  197DOPC   H7Y27154   1.037  10.279   4.862  1.1554  0.9002  2.6343
  197DOPC   C3827155   0.891  10.127   4.797 -0.0297  0.4657 -0.0904
  197DOPC   H8X27156   0.826  10.202   4.747 -0.5733  0.9765  1.3534
  197DOPC   H8Y27157   0.830  10.049   4.847  0.2278  0.9982  1.0912
  197DOPC   C3927158   0.969  10.049   4.696 -0.0119 -0.2320  1.1815
  197DOPC   H9X27159   1.012   9.954   4.732  0.0943 -0.4980  0.3667
  197DOPC  C31027160   1.025  10.091   4.578  0.1197 -0.7706  0.4435
  197DOPC  H10X27161   1.099  10.029   4.524 -0.5247 -1.6372  0.5326
  197DOPC  C31127162   0.990  10.225   4.509 -0.2926  0.8863  0.2177
  197DOPC  H11X27163   1.050  10.308   4.551  0.0348  0.2144  1.1289
  197DOPC  H11Y27164   0.884  10.246   4.537 -0.4305  0.5867 -0.0720
  197DOPC  C31227165   0.992  10.228   4.353 -0.2689  0.1842 -0.3057
  197DOPC  H12X27166   1.095  10.197   4.324 -0.6229 -0.6349 -0.7113
  197DOPC  H12Y27167   0.975  10.332   4.319 -0.6833 -0.0027 -0.6828
  197DOPC  C31327168   0.888  10.139   4.286 -0.1862  0.2906 -0.5134
  197DOPC  H13X27169   0.933  10.043   4.256 -0.9734  0.3316 -1.9200
  197DOPC  H13Y27170   0.798  10.126   4.350 -0.4628 -1.9517 -1.2807
  197DOPC  C31427171   0.836  10.215   4.160 -0.0514  0.0845  0.4848
  197DOPC  H14X27172   0.803  10.316   4.193 -1.3516  0.3691 -1.4809
  197DOPC  H14Y27173   0.923  10.226   4.092 -0.5931 -1.6049 -0.5268
  197DOPC  C31527174   0.730  10.143   4.075 -0.7495  0.6381 -0.6755
  197DOPC  H15X27175   0.641  10.111   4.134 -2.3922  0.1923 -3.2301
  197DOPC  H15Y27176   0.773  10.044   4.048 -1.3490  0.0559  0.4091
  197DOPC  C31627177   0.701  10.216   3.947  0.2408 -0.4769 -0.2224
  197DOPC  H16X27178   0.594  10.196   3.922  0.6355 -2.5217 -0.3871
  197DOPC  H16Y27179   0.697  10.327   3.951 -1.1374 -0.3444 -2.8271
  197DOPC  C31727180   0.780  10.169   3.828 -0.2213 -0.5531  0.3256
  197DOPC  H17X27181   0.889  10.190   3.841 -0.7984  2.4935  0.9474
  197DOPC  H17Y27182   0.773  10.059   3.815 -0.4628 -0.6133  0.9205
  197DOPC  C31827183   0.743  10.236   3.696  0.2417  0.3628 -0.3454
  197DOPC  H18X27184   0.736  10.347   3.703 -0.9089  0.3765 -1.3547
  197DOPC  H18Y27185   0.811  10.210   3.613 -0.4978  1.3816 -1.3006
  197DOPC  H18Z27186   0.641  10.197   3.675 -0.3662  0.1978  2.4255
  198DOPC     N27187  10.320   1.958   6.262  0.1851 -0.2503 -0.1554
  198DOPC   C1227188  10.363   1.829   6.189  0.3330 -0.0868 -0.4439
  198DOPC  H12A27189  10.458   1.859   6.147  1.3021 -0.7317  1.2088
  198DOPC  H12B27190  10.291   1.813   6.110  0.3797  3.7285 -1.4777
  198DOPC   C1327191  10.262   2.067   6.179 -0.2133  0.0929  0.2642
  198DOPC  H13A27192  10.337   2.112   6.115  0.1754 -0.8635  0.0298
  198DOPC  H13B27193  10.177   2.031   6.124 -1.1606  1.4845  0.7626
  198DOPC  H13C27194  10.225   2.151   6.236  1.1513  1.8368 -1.2641
  198DOPC   C1427195  10.428   2.020   6.335 -0.1542 -0.2332 -0.1081
  198DOPC  H14A27196  10.520   2.021   6.278 -0.8982 -0.4102 -1.3621
  198DOPC  H14B27197  10.411   2.122   6.365  1.5138 -0.3801  1.4887
  198DOPC  H14C27198  10.444   1.970   6.429  3.6767  2.5854  0.9779
  198DOPC   C1527199  10.203   1.926   6.357  0.5887 -0.4344  0.1628
  198DOPC  H15A27200  10.117   1.888   6.305 -0.1669 -0.2933  1.2691
  198DOPC  H15B27201  10.167   2.007   6.420  0.9565  1.8167 -2.3196
  198DOPC  H15C27202  10.238   1.846   6.420  2.1166 -0.0755 -0.1925
  198DOPC   C1127203  10.375   1.700   6.276 -0.8777  0.4248 -0.5855
  198DOPC  H11A27204  10.414   1.619   6.211 -1.1539  0.8325 -1.2786
  198DOPC  H11B27205  10.454   1.720   6.351 -1.5163  0.7827  0.0019
  198DOPC     P27206  10.130   1.607   6.260  0.0067  0.0377  0.0060
  198DOPC   O1327207  10.133   1.649   6.122  0.2234 -0.0842  0.2805
  198DOPC   O1427208  10.008   1.642   6.337 -0.2855  0.7404  0.2443
  198DOPC   O1227209  10.256   1.657   6.345 -0.0089 -0.1205  0.1772
  198DOPC   O1127210  10.152   1.446   6.268 -0.5550 -0.8340 -0.1343
  198DOPC    C127211  10.234   1.372   6.175  0.6373  0.0054 -0.1368
  198DOPC    HA27212  10.265   1.286   6.238 -0.3281 -0.2009  0.0754
  198DOPC    HB27213  10.323   1.429   6.141  0.1897  0.3322 -0.7798
  198DOPC    C227214  10.151   1.319   6.055 -0.2179 -1.0697  0.0605
  198DOPC    HS27215  10.218   1.255   5.994  0.3615 -0.0085 -0.4396
  198DOPC   O2127216  10.106   1.421   5.963  0.4026  0.4813 -0.0775
  198DOPC   C2127217  10.200   1.484   5.898 -0.1894  0.0870 -0.9530
  198DOPC   O2227218  10.318   1.470   5.916  0.3778 -0.6230  0.5575
  198DOPC   C2227219  10.143   1.581   5.804  0.4575  0.2239  0.0358
  198DOPC   H2R27220  10.189   1.678   5.834 -0.0582  1.5234 -2.9302
  198DOPC   H2S27221  10.037   1.597   5.832  0.4712  1.6138 -0.6325
  198DOPC    C327222  10.028   1.233   6.100  0.0397 -0.0026  0.0301
  198DOPC    HX27223   9.961   1.294   6.163 -0.0403 -1.8626  1.8575
  198DOPC    HY27224  10.069   1.151   6.163  0.7758  0.2739 -0.0881
  198DOPC   O3127225   9.961   1.183   5.983 -0.3079  0.4546  0.3234
  198DOPC   C3127226   9.832   1.160   5.995  0.4070 -0.0261  1.0488
  198DOPC   O3227227   9.781   1.159   6.108 -0.2142  0.1586 -0.1448
  198DOPC   C3227228   9.770   1.139   5.861  0.0082 -0.0355 -0.2356
  198DOPC   H2X27229   9.727   1.230   5.813  0.7093  0.6850  0.4845
  198DOPC   H2Y27230   9.856   1.108   5.798  0.2734  1.3179 -0.5681
  198DOPC   C2327231  10.129   1.549   5.664  0.2824 -0.1200  0.5224
  198DOPC   H3R27232  10.223   1.561   5.605  1.2407  1.1935  2.2345
  198DOPC   H3S27233  10.057   1.619   5.615 -0.1172  0.2891  1.6685
  198DOPC   C2427234  10.070   1.407   5.634 -0.5059 -0.7166 -0.2948
  198DOPC   H4R27235  10.134   1.326   5.675  1.1576 -0.2006 -1.7243
  198DOPC   H4S27236  10.069   1.391   5.524 -0.3735 -1.2633 -0.2181
  198DOPC   C2527237   9.928   1.389   5.679  0.7863 -0.7562  0.1748
  198DOPC   H5R27238   9.934   1.388   5.790 -0.0357 -1.4109  0.2203
  198DOPC   H5S27239   9.887   1.293   5.642  1.7739 -1.1541  0.0935
  198DOPC   C2627240   9.822   1.500   5.646 -0.0416 -0.1046  0.4275
  198DOPC   H6R27241   9.825   1.507   5.535 -2.0164  0.7124  0.3837
  198DOPC   H6S27242   9.850   1.600   5.684 -0.7932 -0.1404  1.1013
  198DOPC   C2727243   9.674   1.462   5.678 -0.6331  0.0160 -0.5589
  198DOPC   H7R27244   9.671   1.420   5.781  3.1776 -0.2673 -0.4350
  198DOPC   H7S27245   9.646   1.383   5.606 -0.8674  0.2765 -0.7529
  198DOPC   C2827246   9.577   1.588   5.674 -0.8575 -0.0916  0.1503
  198DOPC   H8R27247   9.639   1.664   5.622 -0.7855 -0.6154 -0.5568
  198DOPC   H8S27248   9.568   1.621   5.780  0.5283 -1.5696  0.7648
  198DOPC   C2927249   9.438   1.565   5.617 -0.3216  0.4627  1.1463
  198DOPC   H9R27250   9.354   1.572   5.687 -0.5343 -1.6183  1.1728
  198DOPC  C21027251   9.415   1.513   5.489  0.5620 -0.6395 -0.4004
  198DOPC  H10R27252   9.308   1.513   5.461 -0.9594  2.2336  4.3250
  198DOPC  C21127253   9.515   1.485   5.380  0.4553  0.2033 -0.3666
  198DOPC  H11R27254   9.520   1.375   5.370 -0.5411 -0.0171  1.0951
  198DOPC  H11S27255   9.612   1.528   5.413 -0.4847  0.9352  1.6470
  198DOPC  C21227256   9.474   1.546   5.249  0.1292 -0.2309  0.3662
  198DOPC  H12R27257   9.399   1.487   5.191 -0.0575  1.0707 -0.7582
  198DOPC  H12S27258   9.559   1.550   5.178  0.5181  1.8168  0.9110
  198DOPC  C21327259   9.425   1.684   5.260  0.2307  0.1517 -0.6988
  198DOPC  H13R27260   9.498   1.729   5.331  0.1975 -1.0408  0.1309
  198DOPC  H13S27261   9.333   1.712   5.317  0.3848  1.2042 -0.9476
  198DOPC  C21427262   9.410   1.749   5.123 -0.1552 -0.3880 -0.4566
  198DOPC  H14R27263   9.304   1.747   5.090 -0.6345  1.9538  0.7541
  198DOPC  H14S27264   9.481   1.708   5.048  1.9804  0.2173  1.1376
  198DOPC  C21527265   9.460   1.897   5.118 -0.2721  0.1441  0.3900
  198DOPC  H15R27266   9.563   1.909   5.159 -0.3320  0.4511  0.4541
  198DOPC  H15S27267   9.391   1.953   5.184 -0.1387 -2.4939  2.9935
  198DOPC  C21627268   9.440   1.960   4.977  0.1485  0.7306 -0.2230
  198DOPC  H16R27269   9.330   1.954   4.962 -0.0325  0.3090  1.0985
  198DOPC  H16S27270   9.484   1.890   4.903 -0.1352  0.7893 -0.4478
  198DOPC  C21727271   9.481   2.108   4.972 -0.0394 -0.8898 -0.2307
  198DOPC  H17R27272   9.580   2.119   5.022  0.3333 -2.6865 -0.5010
  198DOPC  H17S27273   9.414   2.169   5.035  0.0845  0.4632 -1.3790
  198DOPC  C21827274   9.495   2.160   4.831  0.7937  0.3039  0.4452
  198DOPC  H18R27275   9.396   2.149   4.783  1.8236 -0.4758 -1.6083
  198DOPC  H18S27276   9.566   2.094   4.777  1.1139 -0.6090  1.9050
  198DOPC  H18T27277   9.539   2.260   4.812  2.6829 -0.2027  1.8843
  198DOPC   C3327278   9.663   1.032   5.876 -0.0215 -0.3044  0.4754
  198DOPC   H3X27279   9.583   1.063   5.946  0.3192 -0.6110  1.0036
  198DOPC   H3Y27280   9.707   0.938   5.915 -0.2349 -0.9357 -0.7273
  198DOPC   C3427281   9.578   0.995   5.748  0.0794  0.3661 -0.2180
  198DOPC   H4X27282   9.496   0.931   5.786 -0.9729  1.8937  0.1297
  198DOPC   H4Y27283   9.650   0.939   5.683  1.5456  0.2354  1.4501
  198DOPC   C3527284   9.522   1.112   5.665  0.6780 -0.5921 -0.1914
  198DOPC   H5X27285   9.599   1.189   5.645 -1.9259  2.3577  0.3429
  198DOPC   H5Y27286   9.442   1.155   5.728  0.2546 -2.3157  0.5063
  198DOPC   C3627287   9.451   1.065   5.541 -0.0497  0.3370  0.0269
  198DOPC   H6X27288   9.408   0.964   5.553 -3.5364  1.4248 -2.0575
  198DOPC   H6Y27289   9.362   1.126   5.516  0.0091 -0.4582 -2.3519
  198DOPC   C3727290   9.542   1.072   5.419  0.4289  0.6148 -0.1942
  198DOPC   H7X27291   9.582   1.174   5.405 -1.1241  1.3319  0.3265
  198DOPC   H7Y27292   9.634   1.013   5.439  0.7448  0.8121 -1.0100
  198DOPC   C3827293   9.481   1.023   5.286  0.4016  0.0008 -0.6689
  198DOPC   H8X27294   9.381   1.066   5.266  0.5756 -0.4781 -2.9082
  198DOPC   H8Y27295   9.477   0.914   5.307 -0.3384  0.3499  1.1637
  198DOPC   C3927296   9.570   1.036   5.154  0.1662  0.5563  0.0321
  198DOPC   H9X27297   9.651   0.963   5.140  0.1846  0.6363 -0.2939
  198DOPC  C31027298   9.544   1.129   5.052  0.1890  0.1488 -0.5722
  198DOPC  H10X27299   9.614   1.132   4.967  1.4147  0.2937  0.4100
  198DOPC  C31127300   9.444   1.247   5.046  0.3968  0.1325 -0.1997
  198DOPC  H11X27301   9.480   1.341   5.000 -1.7503  1.5638  0.8651
  198DOPC  H11Y27302   9.426   1.273   5.153  1.8777  0.8924 -0.1076
  198DOPC  C31227303   9.312   1.199   4.983  0.4702  0.0482  0.3860
  198DOPC  H12X27304   9.291   1.099   5.026  1.2675  0.5532  2.0250
  198DOPC  H12Y27305   9.330   1.199   4.873  0.7364 -0.2945  0.4264
  198DOPC  C31327306   9.192   1.290   5.001 -0.6750 -0.3476 -0.1586
  198DOPC  H13X27307   9.164   1.294   5.108 -0.5335 -0.2006 -0.1275
  198DOPC  H13Y27308   9.225   1.389   4.963  1.7693 -0.5398  1.2505
  198DOPC  C31427309   9.075   1.220   4.928 -0.2124  0.6004  0.0407
  198DOPC  H14X27310   9.071   1.112   4.954  1.5284  0.4765 -0.0691
  198DOPC  H14Y27311   8.978   1.265   4.957 -1.8052 -2.9249  0.7556
  198DOPC  C31527312   9.078   1.239   4.775 -0.4947 -0.0744 -0.8946
  198DOPC  H15X27313   9.149   1.164   4.734 -0.3581 -0.8505  0.6802
  198DOPC  H15Y27314   9.109   1.345   4.762  0.7543  0.0603  2.2806
  198DOPC  C31627315   8.936   1.216   4.715  0.3790  1.3727  0.0697
  198DOPC  H16X27316   8.865   1.293   4.755  0.3954  1.5421 -0.2220
  198DOPC  H16Y27317   8.947   1.234   4.605  0.3834 -0.9139 -0.3519
  198DOPC  C31727318   8.870   1.071   4.737 -0.1034  0.3879  0.3063
  198DOPC  H17X27319   8.845   1.060   4.845 -1.5592  0.2519 -0.0215
  198DOPC  H17Y27320   8.771   1.074   4.686  1.0234  1.2370 -1.9907
  198DOPC  C31827321   8.953   0.955   4.669 -0.0006 -0.3334  0.0612
  198DOPC  H18X27322   9.062   0.965   4.688  0.0286  0.7163 -0.6130
  198DOPC  H18Y27323   8.925   0.853   4.705  2.8210 -0.4362  2.3443
  198DOPC  H18Z27324   8.948   0.971   4.560  2.2533  0.9407  0.0897
  199DOPC     N27325   9.140   7.963   5.912  0.0090 -0.1388  0.5465
  199DOPC   C1227326   9.023   8.023   5.836  0.8565  0.3394 -0.1838
  199DOPC  H12A27327   9.037   8.129   5.824 -0.6835  0.6582  0.7309
  199DOPC  H12B27328   8.943   8.017   5.908  2.0871 -2.4121  1.1148
  199DOPC   C1327329   9.133   7.812   5.920 -0.0168  0.0260 -0.3509
  199DOPC  H13A27330   9.116   7.761   5.826  0.7077  1.1459 -1.1177
  199DOPC  H13B27331   9.216   7.769   5.974 -0.7043  0.1459  0.8272
  199DOPC  H13C27332   9.050   7.797   5.987  0.7176  0.6212  0.7170
  199DOPC   C1427333   9.148   8.018   6.054 -0.5291  0.3137  0.2018
  199DOPC  H14A27334   9.062   7.984   6.110  0.2470 -1.1854  0.5294
  199DOPC  H14B27335   9.240   7.997   6.105 -0.7346  1.7441  1.2091
  199DOPC  H14C27336   9.142   8.126   6.045  0.0070  0.6982  3.3196
  199DOPC   C1527337   9.260   8.005   5.838  0.2182 -0.0157  0.3586
  199DOPC  H15A27338   9.351   7.974   5.886 -0.0627  0.8583  1.5007
  199DOPC  H15B27339   9.267   8.112   5.828  1.8053 -0.1089  0.2313
  199DOPC  H15C27340   9.263   7.969   5.737 -0.9150 -1.1007  0.6817
  199DOPC   C1127341   8.974   7.958   5.711  0.1432 -0.2197  0.5765
  199DOPC  H11A27342   8.894   8.013   5.658  1.5931 -0.1351 -1.6441
  199DOPC  H11B27343   9.057   7.957   5.638 -0.9424  2.3076 -0.8021
  199DOPC     P27344   8.779   7.796   5.781 -0.5124  0.2497  0.3379
  199DOPC   O1327345   8.774   7.863   5.914  0.0707 -0.2321 -0.0840
  199DOPC   O1427346   8.744   7.648   5.779  0.6889 -0.5336 -0.0568
  199DOPC   O1227347   8.926   7.822   5.732  0.3094 -0.2360  0.1963
  199DOPC   O1127348   8.690   7.873   5.669  0.2335 -0.1673 -1.0614
  199DOPC    C127349   8.557   7.891   5.712 -0.3752  0.5171  0.1098
  199DOPC    HA27350   8.545   7.967   5.793 -2.1559 -0.1821  0.5602
  199DOPC    HB27351   8.506   7.798   5.744 -0.7802  1.1180  1.2844
  199DOPC    C227352   8.474   7.955   5.591 -0.2901  1.4345 -0.1536
  199DOPC    HS27353   8.373   7.981   5.631 -0.0427  0.8623  0.8893
  199DOPC   O2127354   8.475   7.860   5.481 -0.5687  0.5219  0.1408
  199DOPC   C2127355   8.357   7.838   5.431  0.1907  0.4657 -0.2747
  199DOPC   O2227356   8.254   7.897   5.461 -0.4364 -0.5053 -0.1739
  199DOPC   C2227357   8.361   7.733   5.315 -1.0403 -0.0776 -0.3646
  199DOPC   H2R27358   8.409   7.643   5.359 -0.2514  0.3433 -0.3313
  199DOPC   H2S27359   8.429   7.762   5.231 -0.7656  2.6406  0.7101
  199DOPC    C327360   8.530   8.080   5.543  0.1297  0.5984 -0.6386
  199DOPC    HX27361   8.637   8.073   5.513  0.4051  0.3738  0.3663
  199DOPC    HY27362   8.526   8.146   5.633 -2.3264  0.2778 -0.4532
  199DOPC   O3127363   8.454   8.123   5.428 -0.8078 -0.5314  0.2314
  199DOPC   C3127364   8.368   8.223   5.466  0.4419 -0.2365 -0.2321
  199DOPC   O3227365   8.357   8.275   5.576  0.2258  0.4782 -0.0485
  199DOPC   C3227366   8.282   8.267   5.345 -0.0987 -0.3874  1.0128
  199DOPC   H2X27367   8.177   8.264   5.380 -0.1627 -1.5867  0.7814
  199DOPC   H2Y27368   8.309   8.374   5.328 -0.3956 -0.8848 -4.7294
  199DOPC   C2327369   8.217   7.691   5.280 -0.8221  0.2502 -0.3266
  199DOPC   H3R27370   8.152   7.781   5.269  0.4338  1.5500  1.9328
  199DOPC   H3S27371   8.181   7.621   5.359 -0.7364 -1.4920 -1.7777
  199DOPC   C2427372   8.223   7.606   5.155  0.0493  0.5222  0.2565
  199DOPC   H4R27373   8.142   7.532   5.135 -0.1659  1.2123 -1.6791
  199DOPC   H4S27374   8.312   7.541   5.166  0.7401  1.3980  0.0089
  199DOPC   C2527375   8.230   7.682   5.017 -0.2460 -0.5095 -0.6052
  199DOPC   H5R27376   8.295   7.772   5.019 -0.2669 -0.4576  2.6634
  199DOPC   H5S27377   8.124   7.711   5.000 -0.5206 -0.9003  0.3422
  199DOPC   C2627378   8.262   7.594   4.894 -0.2886  0.2754 -0.2975
  199DOPC   H6R27379   8.244   7.657   4.805  2.5965  1.3211 -0.2476
  199DOPC   H6S27380   8.198   7.503   4.886  0.7170 -0.5220  0.3776
  199DOPC   C2727381   8.408   7.547   4.894 -0.7609 -0.0583  0.2340
  199DOPC   H7R27382   8.449   7.491   4.981  1.6939  1.0678 -0.1217
  199DOPC   H7S27383   8.463   7.643   4.895 -2.6454  1.1008 -0.7039
  199DOPC   C2827384   8.430   7.465   4.766  0.4152  0.0107  0.3302
  199DOPC   H8R27385   8.339   7.402   4.755  1.3309 -1.1444 -1.0902
  199DOPC   H8S27386   8.524   7.407   4.783  0.7080 -0.0752 -1.3490
  199DOPC   C2927387   8.444   7.541   4.637  0.1745 -0.2665  0.7802
  199DOPC   H9R27388   8.539   7.597   4.641  0.5189 -0.9094  2.4144
  199DOPC  C21027389   8.356   7.549   4.535 -0.0417  0.6150  0.3545
  199DOPC  H10R27390   8.374   7.623   4.456  4.2604  0.4827  0.9443
  199DOPC  C21127391   8.212   7.492   4.532 -0.9635 -0.0282 -0.1399
  199DOPC  H11R27392   8.147   7.575   4.569 -1.1838 -0.8755  1.4495
  199DOPC  H11S27393   8.196   7.397   4.587  0.5758  0.6703  1.6279
  199DOPC  C21227394   8.169   7.475   4.383  0.3639  0.4508 -0.0739
  199DOPC  H12R27395   8.097   7.391   4.372 -0.2800  0.4994  2.9800
  199DOPC  H12S27396   8.262   7.444   4.331  1.4346 -0.0587  2.0349
  199DOPC  C21327397   8.110   7.602   4.308 -0.3632 -0.4507 -0.2097
  199DOPC  H13R27398   8.189   7.678   4.297  0.9441 -1.6949  0.2823
  199DOPC  H13S27399   8.018   7.645   4.354 -0.2327  0.9745 -1.2313
  199DOPC  C21427400   8.049   7.565   4.170  0.3131 -0.0037  0.5232
  199DOPC  H14R27401   7.982   7.479   4.193  1.9203 -1.3567  0.3142
  199DOPC  H14S27402   8.124   7.538   4.093 -0.7336 -0.3293 -0.4053
  199DOPC  C21527403   7.961   7.680   4.102 -0.4290  0.5322  0.3791
  199DOPC  H15R27404   8.032   7.744   4.045 -0.4893  0.7502  0.5471
  199DOPC  H15S27405   7.914   7.745   4.179 -0.8715  0.1046  0.4755
  199DOPC  C21627406   7.859   7.621   4.003 -0.3499 -0.1470 -0.2535
  199DOPC  H16R27407   7.779   7.555   4.043 -1.9770  1.7839 -0.1853
  199DOPC  H16S27408   7.923   7.571   3.927  1.5765 -0.4273  1.4538
  199DOPC  C21727409   7.789   7.743   3.933 -0.0202  0.0257 -0.2153
  199DOPC  H17R27410   7.737   7.694   3.848 -1.4776  0.8247  0.1826
  199DOPC  H17S27411   7.868   7.810   3.895 -0.0720 -0.1065 -0.5537
  199DOPC  C21827412   7.686   7.821   4.012 -0.2030  0.0476 -0.8379
  199DOPC  H18R27413   7.591   7.764   4.025 -0.6167  0.6075 -1.3494
  199DOPC  H18S27414   7.654   7.912   3.957 -0.6271  0.9580  0.8512
  199DOPC  H18T27415   7.713   7.838   4.118  0.5104 -1.5996 -0.7281
  199DOPC   C3327416   8.308   8.173   5.228  0.4100  0.4613  0.4163
  199DOPC   H3X27417   8.300   8.068   5.264 -0.7923 -0.1807 -1.6008
  199DOPC   H3Y27418   8.404   8.190   5.176 -1.3914  0.3670 -3.2097
  199DOPC   C3427419   8.198   8.190   5.126  0.0446  0.7380 -0.2364
  199DOPC   H4X27420   8.210   8.295   5.092 -2.5751  1.5007  0.9135
  199DOPC   H4Y27421   8.106   8.180   5.188  0.5007  0.1160  0.3481
  199DOPC   C3527422   8.205   8.090   5.008 -0.3334  0.1316  0.1823
  199DOPC   H5X27423   8.191   7.989   5.053  1.4718 -0.3441 -0.2270
  199DOPC   H5Y27424   8.303   8.088   4.956  0.0605 -3.4750  0.7679
  199DOPC   C3627425   8.090   8.103   4.905 -0.2731  0.1181  0.1478
  199DOPC   H6X27426   7.994   8.069   4.949  0.3633  0.7500  2.1279
  199DOPC   H6Y27427   8.066   8.205   4.868 -3.0291 -0.8927 -1.0927
  199DOPC   C3727428   8.126   8.023   4.778 -0.4456 -0.2545 -0.2683
  199DOPC   H7X27429   8.223   8.050   4.730 -0.2431 -0.5282 -0.0119
  199DOPC   H7Y27430   8.129   7.921   4.821 -1.2351  0.7680  2.4077
  199DOPC   C3827431   8.016   8.023   4.675  0.6947 -0.1140 -0.1727
  199DOPC   H8X27432   7.991   8.130   4.661  0.7636 -0.1963 -0.9992
  199DOPC   H8Y27433   7.934   7.987   4.741  0.5341  1.8387  0.7609
  199DOPC   C3927434   8.042   7.936   4.554 -0.3653  0.0150  0.2703
  199DOPC   H9X27435   8.080   7.833   4.566 -0.5116 -0.3020 -1.6083
  199DOPC  C31027436   8.001   7.966   4.430  0.2997  0.3455 -0.7761
  199DOPC  H10X27437   8.027   7.906   4.342 -0.7899 -1.0503 -0.1856
  199DOPC  C31127438   7.932   8.091   4.391  0.0907 -0.7143 -0.1812
  199DOPC  H11X27439   7.941   8.168   4.471  0.4840 -0.3708 -0.5454
  199DOPC  H11Y27440   7.825   8.079   4.363 -0.6561  2.3947  0.9584
  199DOPC  C31227441   8.004   8.157   4.271 -0.9084  0.0969 -0.1877
  199DOPC  H12X27442   8.112   8.161   4.295 -1.1633 -0.3592  1.1068
  199DOPC  H12Y27443   7.969   8.260   4.246 -0.7001  1.1387  3.2305
  199DOPC  C31327444   8.006   8.064   4.145  0.3507 -0.2091 -0.1492
  199DOPC  H13X27445   8.097   8.001   4.156  1.7309  1.0798 -2.9977
  199DOPC  H13Y27446   7.917   7.999   4.151 -0.7008  1.0668 -1.4141
  199DOPC  C31427447   8.032   8.137   4.019  0.3421 -0.1652  0.0908
  199DOPC  H14X27448   8.028   8.057   3.941 -0.3480  0.8901 -0.9922
  199DOPC  H14Y27449   7.954   8.214   4.001  0.6005  0.0540 -0.1009
  199DOPC  C31527450   8.179   8.199   4.013  0.5397 -0.3100  0.1418
  199DOPC  H15X27451   8.257   8.123   3.994  0.3282 -0.3404 -0.6216
  199DOPC  H15Y27452   8.188   8.252   4.111  0.7140  0.9751 -0.5527
  199DOPC  C31627453   8.192   8.309   3.907 -0.3371  0.2537  0.1311
  199DOPC  H16X27454   8.176   8.269   3.805 -1.3680  2.3840 -0.6052
  199DOPC  H16Y27455   8.118   8.390   3.928  0.4815  0.3505  3.1420
  199DOPC  C31727456   8.329   8.386   3.898  0.1448  0.0349  0.0410
  199DOPC  H17X27457   8.344   8.430   3.999 -2.3045  1.1719 -0.0086
  199DOPC  H17Y27458   8.404   8.305   3.887 -0.0239 -0.2594  0.9662
  199DOPC  C31827459   8.349   8.487   3.786 -0.0343 -0.2905 -0.3513
  199DOPC  H18X27460   8.337   8.461   3.679 -1.3384  0.3073 -0.3722
  199DOPC  H18Y27461   8.295   8.582   3.808 -0.4052 -0.6452  0.2791
  199DOPC  H18Z27462   8.451   8.532   3.792 -1.4624  3.0538  2.3051
  200DOPC     N27463   0.488   4.755   5.925  0.4465  0.1991  0.4462
  200DOPC   C1227464   0.374   4.794   6.017 -0.5203  0.2982 -0.1376
  200DOPC  H12A27465   0.406   4.895   6.037  1.4176  0.0218 -1.5075
  200DOPC  H12B27466   0.386   4.731   6.104  1.4322  1.6837  0.6754
  200DOPC   C1327467   0.619   4.756   5.992 -0.1193  0.0198  0.6494
  200DOPC  H13A27468   0.697   4.747   5.918 -0.6860 -1.5447  0.2030
  200DOPC  H13B27469   0.635   4.850   6.043  1.0420  1.5758 -2.2995
  200DOPC  H13C27470   0.623   4.665   6.049  1.3331 -0.0250  0.5075
  200DOPC   C1427471   0.484   4.845   5.801  0.4691  0.4180 -0.1152
  200DOPC  H14A27472   0.528   4.940   5.827  1.0110 -0.1588  1.2092
  200DOPC  H14B27473   0.539   4.790   5.726  0.1371  0.1673 -0.1778
  200DOPC  H14C27474   0.379   4.852   5.775  0.6348  0.5263 -0.7624
  200DOPC   C1527475   0.484   4.612   5.877 -0.0355 -0.4269  0.5939
  200DOPC  H15A27476   0.571   4.584   5.819 -0.2056  1.1771 -0.5306
  200DOPC  H15B27477   0.404   4.607   5.804  0.5119  2.0519 -0.2857
  200DOPC  H15C27478   0.468   4.536   5.952  0.5201 -0.4085  0.7321
  200DOPC   C1127479   0.221   4.794   5.975 -1.0368 -0.3476 -1.2269
  200DOPC  H11A27480   0.182   4.692   5.995  0.2073 -0.9840 -1.9503
  200DOPC  H11B27481   0.177   4.867   6.047 -0.3053 -1.3927  0.3398
  200DOPC     P27482   0.085   4.781   5.751  0.1554  0.0172  0.1500
  200DOPC   O1327483  -0.044   4.817   5.818 -0.2684 -0.6789  0.3784
  200DOPC   O1427484   0.101   4.634   5.730 -0.4346 -0.3067  0.4264
  200DOPC   O1227485   0.198   4.829   5.838  0.4683 -0.7353 -0.3422
  200DOPC   O1127486   0.106   4.867   5.619 -0.2268 -0.6014 -0.0979
  200DOPC    C127487   0.148   4.827   5.492  0.6991 -0.3005  0.1614
  200DOPC    HA27488   0.146   4.716   5.484 -1.5790 -0.2251 -1.2364
  200DOPC    HB27489   0.255   4.854   5.480  1.2499 -2.1210  0.5685
  200DOPC    C227490   0.061   4.883   5.379  0.0958 -0.5377  0.3391
  200DOPC    HS27491   0.091   4.824   5.290 -0.2058 -0.2177  0.0235
  200DOPC   O2127492   0.084   5.027   5.358  0.0635 -0.3902  0.3942
  200DOPC   C2127493   0.065   5.075   5.229  0.8041  1.0661 -0.9164
  200DOPC   O2227494   0.041   5.001   5.137  0.3670  0.0606 -0.0111
  200DOPC   C2227495   0.099   5.220   5.233  0.2829  0.5957 -0.5595
  200DOPC   H2R27496   0.174   5.245   5.312  0.5310 -0.0957 -0.5730
  200DOPC   H2S27497   0.007   5.282   5.228 -0.7966 -0.6426  2.0088
  200DOPC    C327498  -0.089   4.861   5.403 -0.7024  0.1894  0.0471
  200DOPC    HX27499  -0.120   4.931   5.483  2.2298  0.3966  1.1449
  200DOPC    HY27500  -0.089   4.759   5.446  2.8937 -0.3049 -0.7548
  200DOPC   O3127501  -0.163   4.869   5.279 -0.3297  0.0330 -0.2734
  200DOPC   C3127502  -0.155   4.761   5.197 -0.0073 -0.0857 -1.3039
  200DOPC   O3227503  -0.083   4.664   5.219 -0.8010 -0.2764  0.5678
  200DOPC   C3227504  -0.267   4.768   5.095  0.4079  0.4112  0.0233
  200DOPC   H2X27505  -0.360   4.802   5.145 -0.8061 -0.5756 -1.4724
  200DOPC   H2Y27506  -0.230   4.851   5.030 -0.1181  0.4083 -0.2842
  200DOPC   C2327507   0.167   5.254   5.099  0.6392  0.5597  0.1493
  200DOPC   H3R27508   0.098   5.214   5.022 -3.2179  0.8743  3.1161
  200DOPC   H3S27509   0.269   5.209   5.098  1.0473  1.3987 -1.8137
  200DOPC   C2427510   0.172   5.411   5.078  0.2673 -0.4025  0.2878
  200DOPC   H4R27511   0.239   5.453   5.156  1.2058 -0.1360 -0.6389
  200DOPC   H4S27512   0.070   5.454   5.079  0.2726 -0.3482 -0.5892
  200DOPC   C2527513   0.238   5.445   4.944 -0.0182 -0.5206  0.1863
  200DOPC   H5R27514   0.321   5.371   4.934  1.4975  1.0705  0.4872
  200DOPC   H5S27515   0.289   5.544   4.947 -1.9684  0.5000  1.0348
  200DOPC   C2627516   0.143   5.427   4.821 -0.2621 -0.6915 -0.2610
  200DOPC   H6R27517   0.086   5.332   4.820 -0.3719 -0.6651  1.1608
  200DOPC   H6S27518   0.205   5.426   4.729  0.0201  1.7584 -0.1633
  200DOPC   C2727519   0.044   5.547   4.806 -0.0177 -0.6048 -0.2214
  200DOPC   H7R27520   0.093   5.640   4.842  1.3380 -1.2136 -0.4152
  200DOPC   H7S27521  -0.039   5.515   4.872 -0.7677 -0.6742 -1.1796
  200DOPC   C2827522   0.007   5.559   4.656  0.1485  0.2187  0.1596
  200DOPC   H8R27523  -0.033   5.464   4.614 -0.0682  0.7977 -0.9892
  200DOPC   H8S27524   0.101   5.574   4.598 -1.3747  3.2035 -1.7983
  200DOPC   C2927525  -0.087   5.677   4.636  0.6109 -0.2341  0.7637
  200DOPC   H9R27526  -0.042   5.777   4.638  0.3349 -0.0490 -0.8939
  200DOPC  C21027527  -0.212   5.672   4.596  0.6863 -0.0002 -0.1692
  200DOPC  H10R27528  -0.258   5.767   4.565 -1.3646 -0.6138  0.7834
  200DOPC  C21127529  -0.299   5.548   4.608 -0.0215  0.4254 -0.8199
  200DOPC  H11R27530  -0.395   5.583   4.650  0.0464 -0.1918 -0.1317
  200DOPC  H11S27531  -0.254   5.469   4.672  0.0929  0.1686 -1.2176
  200DOPC  C21227532  -0.337   5.493   4.470 -0.3788  0.7282  0.1371
  200DOPC  H12R27533  -0.241   5.459   4.426  0.7306  2.2924  1.2382
  200DOPC  H12S27534  -0.379   5.573   4.405  0.3682  0.3885 -0.7958
  200DOPC  C21327535  -0.445   5.380   4.462  0.5354 -0.1163 -1.0843
  200DOPC  H13R27536  -0.530   5.414   4.525  2.4835  0.2590  1.5294
  200DOPC  H13S27537  -0.406   5.292   4.517 -0.6007 -0.5491 -0.9397
  200DOPC  C21427538  -0.469   5.357   4.315 -0.7142  0.3053 -1.2159
  200DOPC  H14R27539  -0.380   5.388   4.256 -0.7389  1.4707 -0.6675
  200DOPC  H14S27540  -0.543   5.429   4.276 -0.1987  1.2995 -0.3951
  200DOPC  C21527541  -0.506   5.214   4.267 -0.0726  0.4307  0.4969
  200DOPC  H15R27542  -0.614   5.190   4.275 -0.0434 -0.2440 -0.8515
  200DOPC  H15S27543  -0.435   5.140   4.310  0.5858  1.6344  1.5469
  200DOPC  C21627544  -0.489   5.212   4.115 -0.7947  0.2438  0.1917
  200DOPC  H16R27545  -0.514   5.107   4.090 -0.4904  0.5159 -1.3496
  200DOPC  H16S27546  -0.381   5.229   4.098 -0.9930  1.1339 -0.2140
  200DOPC  C21727547  -0.583   5.297   4.025 -0.4297 -0.2402  0.9360
  200DOPC  H17R27548  -0.560   5.401   4.054  0.0327 -0.1618  0.3083
  200DOPC  H17S27549  -0.689   5.275   4.050 -0.9891  0.7573 -0.4539
  200DOPC  C21827550  -0.557   5.287   3.876  0.0267  0.0313  0.1463
  200DOPC  H18R27551  -0.598   5.197   3.827 -0.5138 -0.5260  1.5587
  200DOPC  H18S27552  -0.446   5.280   3.869 -0.0957 -1.0844 -0.9476
  200DOPC  H18T27553  -0.600   5.380   3.833 -0.2377  0.4217  1.2277
  200DOPC   C3327554  -0.291   4.648   5.004  0.1531  0.3638  0.6141
  200DOPC   H3X27555  -0.388   4.671   4.955  0.5630  2.2687  0.6136
  200DOPC   H3Y27556  -0.296   4.553   5.062  2.3439 -2.3327 -3.1238
  200DOPC   C3427557  -0.198   4.639   4.881 -0.2719  0.3464 -0.1451
  200DOPC   H4X27558  -0.095   4.631   4.922 -0.3767 -1.0573 -0.1037
  200DOPC   H4Y27559  -0.213   4.730   4.819 -0.0110  0.2909 -0.2907
  200DOPC   C3527560  -0.216   4.514   4.792 -0.2994  0.4076 -0.8068
  200DOPC   H5X27561  -0.316   4.523   4.744 -1.5397  1.0890  1.7048
  200DOPC   H5Y27562  -0.225   4.423   4.855 -0.7414  0.8522 -0.2078
  200DOPC   C3627563  -0.110   4.486   4.684  0.1802 -0.5211 -0.1069
  200DOPC   H6X27564  -0.121   4.564   4.607  2.2312  0.1826  0.2634
  200DOPC   H6Y27565  -0.006   4.497   4.720 -0.0825  0.7113  0.3086
  200DOPC   C3727566  -0.142   4.357   4.613  0.1680  0.0579 -0.3966
  200DOPC   H7X27567  -0.129   4.267   4.677 -0.6009  0.7768  0.8058
  200DOPC   H7Y27568  -0.250   4.350   4.585 -0.2141 -0.2200  1.0492
  200DOPC   C3827569  -0.058   4.330   4.490 -0.4641  0.1043  0.4714
  200DOPC   H8X27570   0.049   4.348   4.516  0.1110 -0.4771 -1.3471
  200DOPC   H8Y27571  -0.071   4.396   4.401  0.1949 -1.2180 -0.6518
  200DOPC   C3927572  -0.071   4.182   4.446 -0.1642 -0.1278  0.8786
  200DOPC   H9X27573  -0.007   4.112   4.503  0.4428 -1.0281 -0.8235
  200DOPC  C31027574  -0.139   4.144   4.338 -0.4440  0.1437  0.0057
  200DOPC  H10X27575  -0.130   4.040   4.304  1.5218 -0.2974  1.6829
  200DOPC  C31127576  -0.225   4.239   4.250 -0.1817  0.1499  0.2404
  200DOPC  H11X27577  -0.242   4.335   4.302  0.7297 -0.2718  1.3533
  200DOPC  H11Y27578  -0.327   4.198   4.234 -0.5669  1.0080  0.4394
  200DOPC  C31227579  -0.182   4.269   4.112  0.1860 -0.3775 -0.2142
  200DOPC  H12X27580  -0.082   4.314   4.131 -0.9349  1.2148  2.5101
  200DOPC  H12Y27581  -0.238   4.350   4.061 -0.1999 -2.0016 -2.5459
  200DOPC  C31327582  -0.192   4.143   4.027 -0.3560 -0.0779 -0.3078
  200DOPC  H13X27583  -0.127   4.057   4.054 -1.3342 -0.6112  0.4564
  200DOPC  H13Y27584  -0.294   4.098   4.035 -0.1995 -0.3198  0.4731
  200DOPC  C31427585  -0.152   4.169   3.875  0.0310 -0.1664 -0.5075
  200DOPC  H14X27586  -0.209   4.254   3.831  0.7706  0.3977 -0.4021
  200DOPC  H14Y27587  -0.046   4.201   3.872 -0.2884  1.0517  0.2581
  200DOPC  C31527588  -0.184   4.048   3.787 -0.2572 -0.0267 -0.2745
  200DOPC  H15X27589  -0.291   4.024   3.802  0.0678 -0.8929  0.7852
  200DOPC  H15Y27590  -0.142   3.957   3.834  0.0883 -0.0012 -0.5332
  200DOPC  C31627591  -0.130   4.051   3.641  0.2342  0.7556 -0.8072
  200DOPC  H16X27592  -0.198   4.117   3.584 -0.4817  0.6049 -0.1489
  200DOPC  H16Y27593  -0.030   4.097   3.647 -0.1210  1.7292 -2.1171
  200DOPC  C31727594  -0.105   3.913   3.579 -0.1904  0.4104 -0.3180
  200DOPC  H17X27595  -0.032   3.920   3.495 -1.0281 -2.2733 -1.4025
  200DOPC  H17Y27596  -0.051   3.850   3.653 -1.6953  0.0040  0.4755
  200DOPC  C31827597  -0.223   3.829   3.529  0.0107 -0.8936  0.2657
  200DOPC  H18X27598  -0.272   3.877   3.441 -1.5806 -3.1316 -0.1755
  200DOPC  H18Y27599  -0.184   3.730   3.498  0.6391  0.0086 -2.0859
  200DOPC  H18Z27600  -0.301   3.824   3.607 -0.7689 -1.9333 -0.5383
  201DOPC     N27601  11.878   9.197   6.445  0.5030 -0.0686 -0.6348
  201DOPC   C1227602  11.853   9.190   6.301  0.2956 -0.2835  0.5904
  201DOPC  H12A27603  11.821   9.284   6.258 -1.1869 -2.2206 -2.9405
  201DOPC  H12B27604  11.766   9.129   6.279 -0.6533  0.9508  0.8036
  201DOPC   C1327605  12.002   9.280   6.478  0.7183  0.1120 -0.0949
  201DOPC  H13A27606  12.097   9.245   6.441 -0.3902 -2.5211 -0.6591
  201DOPC  H13B27607  11.994   9.379   6.436  2.0993 -0.1240 -0.9738
  201DOPC  H13C27608  12.002   9.285   6.586  1.7492  1.0845 -0.1244
  201DOPC   C1427609  11.893   9.063   6.504 -0.4414 -0.2384 -0.6180
  201DOPC  H14A27610  11.973   9.014   6.450 -0.5899  0.1228 -1.1770
  201DOPC  H14B27611  11.931   9.074   6.604  3.4197 -2.3722 -1.6478
  201DOPC  H14C27612  11.804   9.004   6.520 -0.8952  0.4044 -0.7444
  201DOPC   C1527613  11.768   9.265   6.530  0.5065  0.2994 -0.4176
  201DOPC  H15A27614  11.673   9.214   6.522  0.5657  0.2462 -0.7904
  201DOPC  H15B27615  11.761   9.365   6.491  0.8718 -0.2212 -1.8756
  201DOPC  H15C27616  11.792   9.268   6.635 -2.0057 -0.4476  0.2439
  201DOPC   C1127617  11.970   9.126   6.219  0.1347 -0.3080  0.2033
  201DOPC  H11A27618  11.965   9.160   6.113  1.9670 -0.0045  0.1890
  201DOPC  H11B27619  12.063   9.173   6.257  0.2024  0.8335 -1.2795
  201DOPC     P27620  11.853   8.915   6.151  0.2068  0.0978  0.0620
  201DOPC   O1327621  11.726   8.942   6.213  0.1407  0.2574 -0.3820
  201DOPC   O1427622  11.899   8.777   6.140  0.2035  0.0518  0.3108
  201DOPC   O1227623  11.961   8.988   6.240 -0.2119  0.1853  0.4505
  201DOPC   O1127624  11.849   8.986   6.007  0.3702 -0.0862  0.1609
  201DOPC    C127625  11.730   8.963   5.926  0.0555 -0.5526 -0.5215
  201DOPC    HA27626  11.739   9.036   5.843 -2.4516  0.2471 -0.1612
  201DOPC    HB27627  11.636   8.992   5.978  0.6875  0.3738  0.1486
  201DOPC    C227628  11.730   8.822   5.870 -0.3498  0.1548 -0.0302
  201DOPC    HS27629  11.723   8.748   5.952 -0.2468 -2.9973 -2.6920
  201DOPC   O2127630  11.849   8.805   5.789 -0.4639  0.1533 -0.2626
  201DOPC   C2127631  11.895   8.688   5.783 -0.1820 -0.3363 -0.2308
  201DOPC   O2227632  11.853   8.585   5.836  0.3469 -0.3601  0.2359
  201DOPC   C2227633  12.020   8.690   5.697  0.1483  0.2695 -0.0917
  201DOPC   H2R27634  12.097   8.633   5.754  0.3880 -0.8627 -1.4913
  201DOPC   H2S27635  12.061   8.793   5.686  0.2608  0.2172 -0.1619
  201DOPC    C327636  11.607   8.789   5.790  0.4134  0.1911 -0.0697
  201DOPC    HX27637  11.525   8.787   5.866 -0.4386 -0.4314 -0.9857
  201DOPC    HY27638  11.622   8.686   5.753  2.7160  0.2510  0.5520
  201DOPC   O3127639  11.584   8.885   5.688  0.3343  0.4379  0.1931
  201DOPC   C3127640  11.500   8.847   5.592 -0.0133 -0.0355 -0.6079
  201DOPC   O3227641  11.451   8.737   5.583  0.4789  0.4189 -0.1578
  201DOPC   C3227642  11.502   8.953   5.484 -0.2233 -0.3661 -0.3247
  201DOPC   H2X27643  11.397   8.988   5.470  0.0410  0.5550 -0.1031
  201DOPC   H2Y27644  11.570   9.036   5.513 -0.5127  0.8929 -2.9065
  201DOPC   C2327645  11.992   8.630   5.561 -0.6027  0.2678 -0.0203
  201DOPC   H3R27646  11.935   8.537   5.583  1.6654 -0.7931  1.7488
  201DOPC   H3S27647  12.083   8.600   5.505 -1.2139  1.7523 -1.9423
  201DOPC   C2427648  11.906   8.726   5.472 -0.5732  0.4731 -0.2584
  201DOPC   H4R27649  11.971   8.814   5.450  2.1600 -1.0302  1.3190
  201DOPC   H4S27650  11.816   8.754   5.531 -1.0952  0.8970 -1.2314
  201DOPC   C2527651  11.864   8.669   5.340  0.0690  0.4175 -0.1559
  201DOPC   H5R27652  11.775   8.708   5.287 -0.6736 -0.7928  0.1641
  201DOPC   H5S27653  11.837   8.564   5.367 -0.2789  0.9735  1.8013
  201DOPC   C2627654  11.989   8.660   5.248 -0.5118  0.5580 -0.1746
  201DOPC   H6R27655  12.066   8.589   5.286 -2.5675 -3.4334 -2.6979
  201DOPC   H6S27656  12.027   8.760   5.221  0.6572 -0.0168 -0.7425
  201DOPC   C2727657  11.953   8.598   5.112 -0.0074  0.6010 -0.1071
  201DOPC   H7R27658  11.872   8.657   5.064  0.1079  0.8627  0.0174
  201DOPC   H7S27659  11.916   8.496   5.135  0.3914  0.0760 -1.7050
  201DOPC   C2827660  12.066   8.575   5.005  0.3430 -0.0021 -0.0276
  201DOPC   H8R27661  12.096   8.677   4.974 -2.3141  1.1100  0.7011
  201DOPC   H8S27662  12.013   8.528   4.919 -1.0145  0.5713  0.4525
  201DOPC   C2927663  12.185   8.490   5.037  0.7182  0.0370 -0.8030
  201DOPC   H9R27664  12.193   8.465   5.144 -2.0187 -1.7278 -0.9122
  201DOPC  C21027665  12.279   8.454   4.945  0.0446 -0.0814  0.3964
  201DOPC  H10R27666  12.347   8.377   4.983  0.2665  0.5818  1.3873
  201DOPC  C21127667  12.283   8.477   4.794  0.3708 -0.3187  1.2138
  201DOPC  H11R27668  12.187   8.446   4.747  0.4097  0.7667  0.3766
  201DOPC  H11S27669  12.353   8.402   4.752 -2.3020 -1.4282 -1.6483
  201DOPC  C21227670  12.319   8.618   4.764  0.1348  0.0777  0.0535
  201DOPC  H12R27671  12.414   8.651   4.810  0.3904  0.3193 -0.6255
  201DOPC  H12S27672  12.241   8.688   4.800 -2.1945 -2.1566 -0.3682
  201DOPC  C21327673  12.331   8.648   4.611 -0.3409  0.2050 -0.6225
  201DOPC  H13R27674  12.320   8.758   4.603  0.2907  0.1428 -3.1082
  201DOPC  H13S27675  12.239   8.604   4.567 -0.4980 -0.9416  0.7777
  201DOPC  C21427676  12.465   8.608   4.546  0.1275 -0.4824  0.3532
  201DOPC  H14R27677  12.474   8.497   4.545  0.8105 -0.4296 -0.2588
  201DOPC  H14S27678  12.546   8.655   4.605  0.4165  0.2847 -0.6326
  201DOPC  C21527679  12.479   8.642   4.393  0.0487 -0.2749  0.2265
  201DOPC  H15R27680  12.463   8.751   4.386 -1.6163 -0.3405  2.2632
  201DOPC  H15S27681  12.400   8.589   4.335  0.3019  0.4992 -0.8609
  201DOPC  C21627682  12.601   8.599   4.319  0.8366  0.2046 -0.2358
  201DOPC  H16R27683  12.666   8.533   4.381  0.2567  0.1187  0.2863
  201DOPC  H16S27684  12.659   8.693   4.302  0.7453  0.2296 -0.4055
  201DOPC  C21727685  12.575   8.523   4.185  0.2022  0.1706 -0.4486
  201DOPC  H17R27686  12.526   8.592   4.112  0.3868 -1.2927 -2.0020
  201DOPC  H17S27687  12.506   8.438   4.204  0.0069 -0.0064 -1.8755
  201DOPC  C21827688  12.701   8.476   4.122 -0.6057 -0.0076 -0.4411
  201DOPC  H18R27689  12.769   8.563   4.113  1.3589 -1.1696  1.9847
  201DOPC  H18S27690  12.697   8.439   4.017  0.4714  0.2289 -0.5720
  201DOPC  H18T27691  12.754   8.397   4.179  0.1124  0.7926  0.0130
  201DOPC   C3327692  11.554   8.898   5.345  0.0649 -0.0536 -0.7030
  201DOPC   H3X27693  11.517   8.794   5.330 -1.1119  0.4125 -1.2039
  201DOPC   H3Y27694  11.664   8.904   5.343  0.1903 -1.3807  0.4170
  201DOPC   C3427695  11.515   8.985   5.230 -0.3222 -0.5345 -0.4673
  201DOPC   H4X27696  11.581   9.074   5.220 -2.5059  0.9647 -2.9532
  201DOPC   H4Y27697  11.412   9.026   5.235  0.3241  1.0948  0.7829
  201DOPC   C3527698  11.513   8.910   5.096 -0.2071  0.1992 -0.2795
  201DOPC   H5X27699  11.447   8.822   5.106 -1.3117  1.1355  0.9614
  201DOPC   H5Y27700  11.615   8.877   5.068 -0.4137 -0.6041 -0.1017
  201DOPC   C3627701  11.483   8.999   4.971 -0.4317 -0.6011  0.1404
  201DOPC   H6X27702  11.518   8.946   4.879  2.0895  1.4387 -0.1983
  201DOPC   H6Y27703  11.378   9.033   4.960  0.0291  0.6740 -0.5154
  201DOPC   C3727704  11.564   9.139   4.960  0.2390 -0.1662  0.0982
  201DOPC   H7X27705  11.537   9.208   5.043 -0.3225  1.0666 -1.0843
  201DOPC   H7Y27706  11.674   9.125   4.972 -0.0719 -1.5219  1.8344
  201DOPC   C3827707  11.528   9.217   4.825 -0.3844  0.0541  0.1985
  201DOPC   H8X27708  11.550   9.149   4.740  1.0053  0.0741  0.5172
  201DOPC   H8Y27709  11.593   9.307   4.815 -1.0411  0.6104  0.8358
  201DOPC   C3927710  11.389   9.262   4.817  0.0499 -0.3017 -0.1653
  201DOPC   H9X27711  11.352   9.308   4.910 -0.5461  1.2534 -1.1185
  201DOPC  C31027712  11.311   9.270   4.713  0.3226 -0.9035  0.3110
  201DOPC  H10X27713  11.211   9.313   4.733  1.6333  1.9311  1.2582
  201DOPC  C31127714  11.332   9.209   4.581  0.0174  0.7637  0.3122
  201DOPC  H11X27715  11.254   9.133   4.558 -0.4748  0.1472  3.5490
  201DOPC  H11Y27716  11.431   9.161   4.566 -0.3664  0.4387 -1.4708
  201DOPC  C31227717  11.342   9.318   4.473  0.3414  0.2361  0.6831
  201DOPC  H12X27718  11.430   9.384   4.489 -1.2977  2.8300 -0.2430
  201DOPC  H12Y27719  11.247   9.376   4.467  0.6404  0.8260  1.4965
  201DOPC  C31327720  11.371   9.276   4.336  0.8080  0.5904  0.0334
  201DOPC  H13X27721  11.447   9.194   4.331  0.9393  0.4954  2.5985
  201DOPC  H13Y27722  11.282   9.234   4.285  0.3088  2.2239 -0.5159
  201DOPC  C31427723  11.426   9.391   4.251 -0.5360  0.5243  0.2513
  201DOPC  H14X27724  11.356   9.477   4.242 -0.7857  0.3243  0.2635
  201DOPC  H14Y27725  11.525   9.426   4.287 -0.9292 -0.1598  2.0632
  201DOPC  C31527726  11.448   9.340   4.105 -0.4647  0.6272  0.5541
  201DOPC  H15X27727  11.354   9.287   4.082  1.0460 -2.1368  0.3803
  201DOPC  H15Y27728  11.534   9.270   4.105 -1.2644 -0.3927  1.7116
  201DOPC  C31627729  11.461   9.450   3.991 -0.3049  0.8732 -0.7473
  201DOPC  H16X27730  11.450   9.410   3.888  0.5388  3.7168 -2.0353
  201DOPC  H16Y27731  11.373   9.516   4.008 -1.3802 -0.8265  0.7439
  201DOPC  C31727732  11.594   9.528   4.000  1.1102 -0.2633 -0.0630
  201DOPC  H17X27733  11.571   9.618   3.939  1.5436 -0.8547 -1.1316
  201DOPC  H17Y27734  11.615   9.556   4.105 -0.8037 -1.9808  0.8618
  201DOPC  C31827735  11.726   9.464   3.940  1.1940 -0.0019 -0.0870
  201DOPC  H18X27736  11.778   9.388   4.002  3.4590  0.4445 -1.3377
  201DOPC  H18Y27737  11.713   9.412   3.842  0.4944  0.2202 -0.1198
  201DOPC  H18Z27738  11.800   9.546   3.934  1.3408 -0.0560  0.8397
  202DOPC     N27739   2.547   2.517   5.989  0.5422 -0.2187  0.0500
  202DOPC   C1227740   2.487   2.381   5.977  0.1841  0.1072  0.2834
  202DOPC  H12A27741   2.379   2.378   5.969  0.2506 -2.1063 -0.5996
  202DOPC  H12B27742   2.493   2.335   6.074 -2.5907 -1.0515 -0.0062
  202DOPC   C1327743   2.473   2.589   6.097  0.1152  0.6010 -0.2297
  202DOPC  H13A27744   2.382   2.630   6.055  0.5964  1.0682 -0.8303
  202DOPC  H13B27745   2.450   2.520   6.177  1.3169 -0.5091 -0.7990
  202DOPC  H13C27746   2.522   2.678   6.131  1.2371  0.6975 -2.0017
  202DOPC   C1427747   2.534   2.602   5.868  0.2827 -0.2455  0.0058
  202DOPC  H14A27748   2.434   2.606   5.828  1.4686  1.0820 -3.1982
  202DOPC  H14B27749   2.562   2.706   5.884 -1.4220  0.4884 -1.4295
  202DOPC  H14C27750   2.593   2.564   5.785 -1.9642 -2.4465 -0.6917
  202DOPC   C1527751   2.692   2.505   6.028  0.3012  0.3031  0.1665
  202DOPC  H15A27752   2.734   2.605   6.023 -1.9450  1.2869 -0.6032
  202DOPC  H15B27753   2.738   2.440   5.955  0.2525 -1.8638  1.9690
  202DOPC  H15C27754   2.700   2.467   6.129 -2.0435 -1.2436 -0.1670
  202DOPC   C1127755   2.546   2.289   5.864 -0.2648  0.4572 -0.2508
  202DOPC  H11A27756   2.483   2.199   5.847 -0.2966  0.6209 -1.0575
  202DOPC  H11B27757   2.537   2.350   5.771 -1.5564 -0.6718 -0.9095
  202DOPC     P27758   2.702   2.142   6.014  0.1410 -0.3012 -0.5859
  202DOPC   O1327759   2.670   2.210   6.147 -0.9841 -0.1838 -0.1461
  202DOPC   O1427760   2.841   2.095   6.004 -0.4795 -0.6471 -0.1310
  202DOPC   O1227761   2.676   2.246   5.894 -0.1499 -0.4643  0.4151
  202DOPC   O1127762   2.607   2.020   5.996 -0.2100 -0.0195  0.3380
  202DOPC    C127763   2.587   1.958   5.866  0.1905 -0.4349 -0.0750
  202DOPC    HA27764   2.634   2.013   5.782 -1.7490 -1.0074 -1.6004
  202DOPC    HB27765   2.476   1.958   5.858  0.2109 -1.8935 -0.5553
  202DOPC    C227766   2.625   1.804   5.853  0.2526 -0.1663  0.0545
  202DOPC    HS27767   2.731   1.789   5.882  0.0009  0.8503  1.6766
  202DOPC   O2127768   2.603   1.765   5.712 -0.2579 -0.0242  0.0875
  202DOPC   C2127769   2.703   1.808   5.628 -0.0637 -0.6578 -0.0184
  202DOPC   O2227770   2.805   1.867   5.660  0.2251  0.0131  0.2448
  202DOPC   C2227771   2.669   1.769   5.491  0.3005 -0.2083  0.2324
  202DOPC   H2R27772   2.558   1.774   5.477  0.1482 -3.1877 -0.3796
  202DOPC   H2S27773   2.690   1.661   5.477  0.0961 -0.0038 -2.1466
  202DOPC    C327774   2.539   1.718   5.954 -0.0267 -0.7835 -0.8513
  202DOPC    HX27775   2.560   1.740   6.061  1.5687 -0.5968 -1.1795
  202DOPC    HY27776   2.560   1.609   5.952 -1.8489 -1.1820 -0.3343
  202DOPC   O3127777   2.396   1.738   5.927  0.2000  0.2463 -1.0948
  202DOPC   C3127778   2.337   1.659   5.845 -0.0712 -0.7459 -0.0617
  202DOPC   O3227779   2.369   1.549   5.807  0.3171  0.3826  0.0424
  202DOPC   C3227780   2.212   1.731   5.794 -0.1740 -0.8861  0.4660
  202DOPC   H2X27781   2.143   1.733   5.881 -1.5148 -0.3073 -0.5624
  202DOPC   H2Y27782   2.233   1.837   5.767 -2.2911 -0.4618  0.2847
  202DOPC   C2327783   2.749   1.858   5.386  0.0776 -0.2578  0.2887
  202DOPC   H3R27784   2.858   1.848   5.403 -0.0396 -1.4123  0.4991
  202DOPC   H3S27785   2.731   1.966   5.405  1.8693  0.4394 -1.5985
  202DOPC   C2427786   2.718   1.837   5.239  0.1058  1.0297  0.8417
  202DOPC   H4R27787   2.613   1.853   5.207  0.5041  0.4302 -0.8828
  202DOPC   H4S27788   2.725   1.731   5.206 -0.0459  1.8561 -2.1131
  202DOPC   C2527789   2.803   1.917   5.137 -0.4635 -0.2053  1.0079
  202DOPC   H5R27790   2.905   1.935   5.178  0.0003  1.9748 -0.8857
  202DOPC   H5S27791   2.758   2.018   5.123  0.8346  0.1227 -1.2450
  202DOPC   C2627792   2.810   1.857   5.000  0.2744  0.0243  0.6092
  202DOPC   H6R27793   2.707   1.836   4.963  0.5110 -3.3764  1.5800
  202DOPC   H6S27794   2.839   1.751   5.013 -0.0533  0.1054  2.2238
  202DOPC   C2727795   2.894   1.937   4.901  0.3551  0.3703 -0.0617
  202DOPC   H7R27796   2.996   1.957   4.941  0.4809  0.4796 -0.4342
  202DOPC   H7S27797   2.845   2.037   4.907 -1.5306 -0.4389 -1.0234
  202DOPC   C2827798   2.890   1.887   4.755 -0.0884  0.0513  0.2788
  202DOPC   H8R27799   2.785   1.887   4.719 -0.5955  0.1628  1.7109
  202DOPC   H8S27800   2.928   1.783   4.746  0.8950  0.4588 -0.4814
  202DOPC   C2927801   2.983   1.975   4.667  0.5728 -0.1376 -0.0787
  202DOPC   H9R27802   3.039   2.060   4.708 -2.1349  1.3427  0.8491
  202DOPC  C21027803   2.995   1.969   4.531 -0.5733 -0.4228  0.1142
  202DOPC  H10R27804   3.075   2.031   4.488 -0.2284  0.1495  1.5380
  202DOPC  C21127805   2.918   1.874   4.442 -0.1404 -0.0956  0.3644
  202DOPC  H11R27806   2.810   1.899   4.439 -0.7178 -2.0089  2.2452
  202DOPC  H11S27807   2.912   1.771   4.484 -0.8625 -0.6345 -1.0010
  202DOPC  C21227808   2.972   1.868   4.300 -0.8849 -0.1742 -0.0592
  202DOPC  H12R27809   2.920   1.783   4.251 -0.4033 -0.2663 -0.4147
  202DOPC  H12S27810   3.081   1.843   4.296 -0.1698  2.7228 -0.6354
  202DOPC  C21327811   2.959   1.996   4.210  0.2108  0.2996  0.0056
  202DOPC  H13R27812   3.043   2.057   4.250  0.1894  0.1079  0.3478
  202DOPC  H13S27813   2.857   2.036   4.226 -0.7647 -0.7305 -2.9122
  202DOPC  C21427814   2.965   1.971   4.061  0.6193 -0.2672 -0.1747
  202DOPC  H14R27815   3.044   1.904   4.021 -1.1499 -2.5062 -0.1850
  202DOPC  H14S27816   2.976   2.063   4.001  0.6036 -0.3514 -0.3058
  202DOPC  C21527817   2.831   1.913   3.996 -0.1696  0.5328  0.0552
  202DOPC  H15R27818   2.748   1.979   4.027 -0.0666  0.4533  0.5000
  202DOPC  H15S27819   2.809   1.813   4.039  1.4107  0.8483  1.6853
  202DOPC  C21627820   2.843   1.889   3.844  0.2196 -0.6349  0.2440
  202DOPC  H16R27821   2.925   1.817   3.821 -0.3672 -1.0580 -0.5900
  202DOPC  H16S27822   2.862   1.986   3.794  0.6862  0.2216  2.0054
  202DOPC  C21727823   2.715   1.824   3.790 -0.1520 -0.1298  0.1263
  202DOPC  H17R27824   2.694   1.871   3.692 -4.0517 -0.2146  0.7553
  202DOPC  H17S27825   2.628   1.861   3.849  1.4417  1.7510  1.4175
  202DOPC  C21827826   2.722   1.671   3.782  0.1129 -0.6139 -0.6059
  202DOPC  H18R27827   2.785   1.649   3.694 -0.2486 -3.3008 -0.2557
  202DOPC  H18S27828   2.620   1.628   3.778 -0.0262 -1.0616  3.3269
  202DOPC  H18T27829   2.763   1.634   3.879 -0.1294 -1.3436 -0.7839
  202DOPC   C3327830   2.140   1.660   5.681 -0.0747 -0.3643  0.3351
  202DOPC   H3X27831   2.035   1.689   5.664 -0.3716  1.6582  4.4159
  202DOPC   H3Y27832   2.130   1.552   5.702 -1.0404 -0.7160 -1.6758
  202DOPC   C3427833   2.216   1.660   5.543 -0.3437 -0.3196  0.4280
  202DOPC   H4X27834   2.308   1.601   5.557 -0.3100 -1.3190 -2.9913
  202DOPC   H4Y27835   2.246   1.763   5.515  1.2963 -1.4144 -2.2031
  202DOPC   C3527836   2.142   1.585   5.428 -0.3172 -0.7152 -0.1471
  202DOPC   H5X27837   2.049   1.638   5.398  0.9532  2.7622  1.4334
  202DOPC   H5Y27838   2.113   1.489   5.476 -2.9631  0.8952  1.7514
  202DOPC   C3627839   2.233   1.559   5.308 -0.3643  0.0387 -0.1951
  202DOPC   H6X27840   2.325   1.508   5.344 -1.0395 -0.6348  0.6200
  202DOPC   H6Y27841   2.190   1.480   5.243 -0.5586  0.4007 -0.5015
  202DOPC   C3727842   2.262   1.684   5.226 -0.5720  0.6978 -0.3862
  202DOPC   H7X27843   2.159   1.710   5.193 -0.7120 -0.5404 -0.9633
  202DOPC   H7Y27844   2.299   1.765   5.292 -0.8659  0.9767 -0.5621
  202DOPC   C3827845   2.375   1.658   5.115  0.1027 -0.4010 -0.4433
  202DOPC   H8X27846   2.473   1.670   5.167 -0.2801 -2.2482  0.8057
  202DOPC   H8Y27847   2.370   1.753   5.057  1.0261  0.6869  1.1647
  202DOPC   C3927848   2.367   1.536   5.033  0.4009  0.4544 -0.4406
  202DOPC   H9X27849   2.344   1.444   5.089 -0.4956  0.0753 -1.4158
  202DOPC  C31027850   2.373   1.534   4.898  0.3447 -0.4237  0.4304
  202DOPC  H10X27851   2.371   1.433   4.854  0.7449 -0.2038 -0.0939
  202DOPC  C31127852   2.385   1.638   4.791 -1.0248 -0.2315  0.4560
  202DOPC  H11X27853   2.384   1.742   4.832 -0.4377 -0.1102  0.1702
  202DOPC  H11Y27854   2.300   1.631   4.721 -1.3304 -1.3692  0.9284
  202DOPC  C31227855   2.516   1.619   4.709 -0.6611 -0.0023 -0.2528
  202DOPC  H12X27856   2.603   1.630   4.777 -0.8741 -2.2368  0.4430
  202DOPC  H12Y27857   2.532   1.713   4.650  1.4465 -0.1515  0.0108
  202DOPC  C31327858   2.514   1.498   4.608 -0.5709  0.8006  0.2364
  202DOPC  H13X27859   2.477   1.402   4.651  1.8288 -0.6865 -0.7967
  202DOPC  H13Y27860   2.449   1.521   4.521 -3.6821  0.4937  2.3057
  202DOPC  C31427861   2.654   1.465   4.547  0.1822  0.0121  0.2252
  202DOPC  H14X27862   2.728   1.463   4.630  0.6599  1.7957 -0.1153
  202DOPC  H14Y27863   2.645   1.372   4.487 -0.3144  0.5075 -0.4900
  202DOPC  C31527864   2.706   1.576   4.452  0.2552  0.3556  0.2404
  202DOPC  H15X27865   2.807   1.543   4.421 -0.1092  0.9695 -1.7326
  202DOPC  H15Y27866   2.709   1.666   4.518 -0.7967  0.0864  0.6830
  202DOPC  C31627867   2.627   1.594   4.327 -0.2307 -0.5169  0.3576
  202DOPC  H16X27868   2.517   1.583   4.343 -0.3501  1.4113  1.1536
  202DOPC  H16Y27869   2.654   1.693   4.285 -0.0247 -0.4143  0.7270
  202DOPC  C31727870   2.678   1.490   4.228 -0.4830 -0.0071 -0.1243
  202DOPC  H17X27871   2.784   1.520   4.211  0.2528 -2.6115 -0.6828
  202DOPC  H17Y27872   2.699   1.388   4.267  0.2181 -0.6024 -1.9465
  202DOPC  C31827873   2.600   1.483   4.100  0.2842  0.2688  0.1045
  202DOPC  H18X27874   2.591   1.587   4.062 -2.8043  0.5776  1.4032
  202DOPC  H18Y27875   2.642   1.415   4.023  2.5603  1.1473  0.4984
  202DOPC  H18Z27876   2.492   1.468   4.123  0.1697  1.4807  0.4293
  203DOPC     N27877   0.189   1.024   6.285  0.5819 -0.0348  0.1832
  203DOPC   C1227878   0.178   0.987   6.136  0.7620  0.0758 -0.3076
  203DOPC  H12A27879   0.202   0.881   6.134 -0.6259 -0.2451 -1.5302
  203DOPC  H12B27880   0.253   1.039   6.078 -0.1973  0.3579 -1.3185
  203DOPC   C1327881   0.153   1.173   6.289  0.1412 -0.1314 -0.0996
  203DOPC  H13A27882   0.203   1.226   6.209  0.2733  0.0535  0.1055
  203DOPC  H13B27883   0.049   1.196   6.270  0.1452  1.6922  1.7861
  203DOPC  H13C27884   0.186   1.215   6.383 -1.3088 -0.5240  0.6181
  203DOPC   C1427885   0.333   1.001   6.332  0.4925 -0.1946 -0.2758
  203DOPC  H14A27886   0.369   0.900   6.331  1.0888  0.0161 -0.4165
  203DOPC  H14B27887   0.397   1.069   6.278  0.2840 -0.0349 -0.3266
  203DOPC  H14C27888   0.341   1.031   6.436 -0.6407  1.8965 -0.7320
  203DOPC   C1527889   0.098   0.952   6.374  1.1035 -0.1402  0.0625
  203DOPC  H15A27890   0.133   0.972   6.474 -1.0448 -0.4089  0.9276
  203DOPC  H15B27891   0.084   0.845   6.369 -0.8534  0.0555  0.5743
  203DOPC  H15C27892  -0.003   0.989   6.368  0.5166 -1.2739  1.8980
  203DOPC   C1127893   0.053   1.009   6.054  0.5402 -0.2236  0.2369
  203DOPC  H11A27894   0.039   1.118   6.038 -1.1760 -0.4455  0.0680
  203DOPC  H11B27895   0.068   0.967   5.952 -0.5525  1.7011 -0.7711
  203DOPC     P27896  -0.114   0.811   6.090  0.5292  0.2151 -0.3745
  203DOPC   O1327897  -0.259   0.801   6.113 -0.1506  0.0848  0.3057
  203DOPC   O1427898  -0.030   0.711   6.161  0.2310  0.4408  0.1252
  203DOPC   O1227899  -0.065   0.956   6.115  0.1584 -0.0540 -0.1235
  203DOPC   O1127900  -0.090   0.792   5.932 -0.6619 -0.0772 -0.2998
  203DOPC    C127901  -0.170   0.859   5.831 -0.2159  0.2807  0.2599
  203DOPC    HA27902  -0.186   0.966   5.857  2.2647  1.2770 -1.8701
  203DOPC    HB27903  -0.263   0.799   5.829  1.0600 -1.8564  1.5001
  203DOPC    C227904  -0.106   0.849   5.689  0.5467 -0.3841 -0.1984
  203DOPC    HS27905  -0.178   0.889   5.615  1.4451 -1.1613 -1.5338
  203DOPC   O2127906  -0.073   0.711   5.651 -0.4886 -0.3357 -0.2781
  203DOPC   C2127907  -0.179   0.643   5.621  0.4548  0.4195 -0.4252
  203DOPC   O2227908  -0.291   0.685   5.606  0.5862 -0.6351  0.1291
  203DOPC   C2227909  -0.146   0.496   5.631 -0.3401 -0.1522 -0.2631
  203DOPC   H2R27910  -0.129   0.477   5.739  0.4523  1.4716 -0.0669
  203DOPC   H2S27911  -0.049   0.480   5.579  0.9849  3.0088  0.9570
  203DOPC    C327912   0.016   0.945   5.675  0.3003  1.1309  0.4539
  203DOPC    HX27913   0.083   0.924   5.761  0.3132  1.0107  0.4134
  203DOPC    HY27914  -0.022   1.050   5.678  3.5646  2.4131  1.3464
  203DOPC   O3127915   0.084   0.930   5.549 -0.1063 -0.0826 -0.7650
  203DOPC   C3127916   0.169   0.834   5.538  0.3368 -0.3920 -0.3240
  203DOPC   O3227917   0.226   0.772   5.627 -0.1006 -0.2161  0.4008
  203DOPC   C3227918   0.207   0.818   5.388  0.8919 -0.0486  0.3133
  203DOPC   H2X27919   0.123   0.869   5.335 -0.8254 -0.2628  2.6452
  203DOPC   H2Y27920   0.302   0.870   5.368  1.2883 -0.9721 -0.2858
  203DOPC   C2327921  -0.258   0.403   5.590  0.4872 -0.4977 -0.4638
  203DOPC   H3R27922  -0.347   0.413   5.656  1.2761 -1.5457  0.8116
  203DOPC   H3S27923  -0.227   0.298   5.606  1.7994 -0.0401  0.1250
  203DOPC   C2427924  -0.299   0.403   5.445 -0.1880 -0.4505  0.2099
  203DOPC   H4R27925  -0.335   0.502   5.411 -0.5832 -1.7534 -3.6103
  203DOPC   H4S27926  -0.379   0.327   5.431 -0.1765 -0.2377 -1.0732
  203DOPC   C2527927  -0.196   0.360   5.344  0.4102 -0.0335  0.5160
  203DOPC   H5R27928  -0.109   0.427   5.328  0.6340 -0.3252  0.5101
  203DOPC   H5S27929  -0.255   0.344   5.251  0.1481 -3.1425  1.1159
  203DOPC   C2627930  -0.135   0.219   5.368  0.1787 -0.8294 -0.5115
  203DOPC   H6R27931  -0.216   0.143   5.379  0.0721 -1.0532 -2.4442
  203DOPC   H6S27932  -0.081   0.226   5.465  0.6906  0.0403 -0.8506
  203DOPC   C2727933  -0.036   0.175   5.262 -0.1006  0.5521  0.0217
  203DOPC   H7R27934  -0.011   0.068   5.277 -1.8713  0.0376 -0.3946
  203DOPC   H7S27935   0.055   0.238   5.253 -0.2318  0.7269 -0.0820
  203DOPC   C2827936  -0.105   0.184   5.130  0.0433  0.0050 -0.1210
  203DOPC   H8R27937  -0.151   0.281   5.103  0.3461  0.4912  1.0207
  203DOPC   H8S27938  -0.194   0.117   5.132  1.3049 -1.8318 -1.8773
  203DOPC   C2927939  -0.018   0.142   5.013  0.0963  0.0644 -0.3380
  203DOPC   H9R27940   0.039   0.229   4.977  1.1562  0.1125  1.3585
  203DOPC  C21027941  -0.004   0.027   4.951  0.4822  0.3487  0.0135
  203DOPC  H10R27942   0.047   0.022   4.853  0.2560 -0.8244 -0.0655
  203DOPC  C21127943  -0.080  -0.093   4.997  0.1407 -0.2769 -0.2154
  203DOPC  H11R27944  -0.178  -0.080   4.947 -1.1468  0.7242  2.3862
  203DOPC  H11S27945  -0.083  -0.103   5.108 -1.8499 -1.3455 -0.3144
  203DOPC  C21227946  -0.024  -0.235   4.968 -0.0374 -0.1704 -0.1992
  203DOPC  H12R27947  -0.072  -0.307   5.039  0.7767 -1.8003 -1.2271
  203DOPC  H12S27948   0.084  -0.233   4.995 -0.4193  2.3029  1.4289
  203DOPC  C21327949  -0.074  -0.294   4.827 -0.2034  0.1442  0.0562
  203DOPC  H13R27950  -0.180  -0.269   4.807 -0.2706 -0.2037 -0.0389
  203DOPC  H13S27951  -0.045  -0.399   4.847 -0.3730  0.4800  2.3530
  203DOPC  C21427952   0.022  -0.237   4.710  0.1644 -0.1054 -0.5203
  203DOPC  H14R27953   0.119  -0.235   4.763  0.1494 -1.2028 -0.4152
  203DOPC  H14S27954  -0.008  -0.134   4.684 -0.4790 -0.0134  0.5639
  203DOPC  C21527955   0.027  -0.339   4.592  0.0157 -0.2627  0.9291
  203DOPC  H15R27956  -0.057  -0.311   4.526  1.4849  0.5655 -0.6961
  203DOPC  H15S27957   0.014  -0.442   4.630  0.4388 -0.4358  0.6169
  203DOPC  C21627958   0.151  -0.322   4.501  0.4649 -0.5139 -0.5604
  203DOPC  H16R27959   0.243  -0.371   4.539 -0.0197  0.4436  2.0630
  203DOPC  H16S27960   0.163  -0.212   4.490 -0.1882 -0.5450 -1.7960
  203DOPC  C21727961   0.136  -0.372   4.353  0.2724  0.1294 -0.1437
  203DOPC  H17R27962   0.223  -0.342   4.291 -0.6168  0.6563 -1.1866
  203DOPC  H17S27963   0.044  -0.321   4.316 -0.7803  0.5391  2.7478
  203DOPC  C21827964   0.117  -0.522   4.338 -0.5501  0.6032  0.0312
  203DOPC  H18R27965   0.034  -0.550   4.407 -0.5547 -0.6527 -0.4488
  203DOPC  H18S27966   0.207  -0.580   4.367 -1.1801 -1.2996 -1.6176
  203DOPC  H18T27967   0.080  -0.555   4.239 -0.1902 -2.8839  0.9182
  203DOPC   C3327968   0.231   0.669   5.369 -0.4192  0.4498  0.0373
  203DOPC   H3X27969   0.155   0.602   5.416 -2.4388  2.0073 -0.8656
  203DOPC   H3Y27970   0.332   0.642   5.408 -0.4345 -0.0073 -0.2323
  203DOPC   C3427971   0.242   0.628   5.218 -0.3627 -0.0610  0.4500
  203DOPC   H4X27972   0.330   0.685   5.181 -0.4517  0.6093  1.2508
  203DOPC   H4Y27973   0.155   0.678   5.170  1.1026  0.8019 -1.4507
  203DOPC   C3527974   0.262   0.478   5.191 -0.4384 -0.0313 -0.1168
  203DOPC   H5X27975   0.178   0.409   5.212 -1.8251  1.8138  0.6827
  203DOPC   H5Y27976   0.347   0.440   5.253 -1.8377  0.5224  2.2875
  203DOPC   C3627977   0.300   0.461   5.043  0.2213 -0.1580  0.5543
  203DOPC   H6X27978   0.217   0.483   4.972  0.5416  0.2194  0.2988
  203DOPC   H6Y27979   0.383   0.528   5.015  0.4220 -1.0395 -1.0526
  203DOPC   C3727980   0.346   0.322   5.009 -0.5932  0.6290 -0.1167
  203DOPC   H7X27981   0.405   0.270   5.088  0.5404 -0.5891 -1.7044
  203DOPC   H7Y27982   0.256   0.258   5.001  0.0436 -0.2056 -0.7642
  203DOPC   C3827983   0.423   0.304   4.877  0.1052 -0.0408  0.6232
  203DOPC   H8X27984   0.511   0.371   4.889  0.2623 -0.4324  1.6941
  203DOPC   H8Y27985   0.358   0.339   4.794  0.0921  0.0888  0.6875
  203DOPC   C3927986   0.468   0.165   4.856 -0.5620 -0.2466 -0.6550
  203DOPC   H9X27987   0.558   0.135   4.910 -0.3779  1.0397 -0.2138
  203DOPC  C31027988   0.413   0.075   4.771 -0.0350  0.1203  0.1422
  203DOPC  H10X27989   0.450  -0.029   4.765 -1.1767 -0.2128 -2.8095
  203DOPC  C31127990   0.309   0.111   4.667 -0.0758 -0.3550  0.5903
  203DOPC  H11X27991   0.252   0.202   4.694  0.6700  1.0700 -2.2527
  203DOPC  H11Y27992   0.237   0.029   4.651  0.5845 -0.5471 -1.7979
  203DOPC  C31227993   0.386   0.136   4.535 -0.3795  0.2583 -0.4536
  203DOPC  H12X27994   0.445   0.044   4.518 -0.9016 -0.5897  1.9681
  203DOPC  H12Y27995   0.458   0.220   4.549  0.9769 -0.7591 -1.1003
  203DOPC  C31327996   0.296   0.178   4.413  1.0577 -0.0900 -0.8943
  203DOPC  H13X27997   0.209   0.109   4.410  0.1106  1.0702 -0.9083
  203DOPC  H13Y27998   0.254   0.276   4.446  1.6564  0.1585 -0.8519
  203DOPC  C31427999   0.379   0.195   4.288  0.1834  0.1728 -0.5569
  203DOPC  H14X28000   0.472   0.254   4.302  0.2333 -0.1912  0.8666
  203DOPC  H14Y28001   0.411   0.094   4.255  0.7035  0.7603 -1.9079
  203DOPC  C31528002   0.294   0.250   4.172 -0.5236  0.2162  0.9189
  203DOPC  H15X28003   0.241   0.342   4.205 -1.1127  0.8202 -1.4736
  203DOPC  H15Y28004   0.221   0.172   4.142  0.1358 -0.9441  2.2375
  203DOPC  C31628005   0.390   0.296   4.050 -0.0835 -0.6035 -0.3408
  203DOPC  H16X28006   0.414   0.400   4.082 -0.6022 -0.0201 -1.7768
  203DOPC  H16Y28007   0.484   0.237   4.058 -0.5243 -1.1998  0.6612
  203DOPC  C31728008   0.303   0.278   3.923 -0.2271 -0.3136  0.4412
  203DOPC  H17X28009   0.266   0.174   3.910 -3.1060  0.4139  1.9037
  203DOPC  H17Y28010   0.210   0.338   3.924  0.3317  0.5780  0.2423
  203DOPC  C31828011   0.373   0.312   3.795  0.7943  0.2892  0.5350
  203DOPC  H18X28012   0.457   0.240   3.791  0.9537  0.5226 -2.2424
  203DOPC  H18Y28013   0.313   0.305   3.702  2.6909 -0.4326 -0.7038
  203DOPC  H18Z28014   0.407   0.418   3.792  1.0225  0.2125 -1.7242
  204DOPC     N28015  11.972   1.695   6.273  0.2935  0.5180 -0.2627
  204DOPC   C1228016  11.911   1.580   6.192  0.1834  0.1138 -1.0525
  204DOPC  H12A28017  11.822   1.545   6.243  0.5982  0.7300  0.1232
  204DOPC  H12B28018  11.983   1.500   6.200 -0.2746 -0.3436 -1.4126
  204DOPC   C1328019  11.873   1.800   6.286  0.5617  0.5402  0.2189
  204DOPC  H13A28020  11.782   1.768   6.333 -0.6530  2.4215 -0.7217
  204DOPC  H13B28021  11.924   1.887   6.325  0.8976 -0.1919  1.4897
  204DOPC  H13C28022  11.837   1.842   6.194  0.6051  1.5926  0.6624
  204DOPC   C1428023  12.104   1.743   6.207  0.2223  0.7161  0.0322
  204DOPC  H14A28024  12.161   1.655   6.182  0.0964  1.0983 -1.7434
  204DOPC  H14B28025  12.087   1.777   6.106  1.4639  1.1883 -0.0295
  204DOPC  H14C28026  12.163   1.810   6.267  0.3254  0.1135  0.6127
  204DOPC   C1528027  12.020   1.652   6.418  0.0352  0.1832  0.2068
  204DOPC  H15A28028  12.087   1.567   6.411  0.0725  0.2531 -0.2893
  204DOPC  H15B28029  11.925   1.632   6.466  0.1368 -0.1992  0.2487
  204DOPC  H15C28030  12.067   1.737   6.465 -1.5180  0.2074  1.8568
  204DOPC   C1128031  11.900   1.602   6.040 -0.1698  0.3309 -0.2070
  204DOPC  H11A28032  11.837   1.519   6.001  1.3129 -0.2719 -1.3942
  204DOPC  H11B28033  11.841   1.695   6.025 -0.7593 -0.0741 -0.4480
  204DOPC     P28034  12.104   1.463   5.962 -0.1135  0.1082 -0.1450
  204DOPC   O1328035  12.070   1.383   6.084 -0.0351  0.2715 -0.6144
  204DOPC   O1428036  12.247   1.485   5.936  0.0163  0.1657 -0.3897
  204DOPC   O1228037  12.024   1.604   5.967  0.3104 -0.0677 -0.3190
  204DOPC   O1128038  12.039   1.398   5.833 -0.6764  0.1905  0.2496
  204DOPC    C128039  12.028   1.482   5.714 -0.5681  0.4969 -0.0983
  204DOPC    HA28040  12.070   1.585   5.726 -1.0413  0.5318  1.5263
  204DOPC    HB28041  11.921   1.488   5.686 -0.5205  2.9237  0.0477
  204DOPC    C228042  12.108   1.414   5.596 -0.3513  0.9393 -0.4296
  204DOPC    HS28043  12.100   1.472   5.502 -0.0490 -0.4337 -1.3193
  204DOPC   O2128044  12.060   1.276   5.582  0.4334 -0.1844 -0.2246
  204DOPC   C2128045  11.946   1.260   5.520  0.0082  0.9400  0.3837
  204DOPC   O2228046  11.881   1.342   5.462  0.4357  0.2493  0.7857
  204DOPC   C2228047  11.920   1.108   5.505  0.2550  0.0720  0.3868
  204DOPC   H2R28048  11.816   1.098   5.542 -0.1263 -0.9413 -0.8960
  204DOPC   H2S28049  11.990   1.043   5.562 -1.1754 -0.7550  1.2589
  204DOPC    C328050  12.266   1.399   5.629 -0.3251  0.2062 -0.1375
  204DOPC    HX28051  12.266   1.317   5.704 -2.2026  0.1613 -0.1517
  204DOPC    HY28052  12.302   1.493   5.675 -0.4137  0.8066 -1.2600
  204DOPC   O3128053  12.336   1.385   5.507  0.0519  0.3595  0.5426
  204DOPC   C3128054  12.453   1.335   5.505 -0.2215  0.1278  0.3188
  204DOPC   O3228055  12.520   1.289   5.599  0.5054  0.3563 -0.5396
  204DOPC   C3228056  12.517   1.354   5.366 -0.3116  0.3344  0.4977
  204DOPC   H2X28057  12.471   1.441   5.314 -0.1188  1.0552  1.4983
  204DOPC   H2Y28058  12.625   1.369   5.387 -0.0183  1.2035 -1.4128
  204DOPC   C2328059  11.914   1.067   5.358 -0.4079 -0.4227  0.0022
  204DOPC   H3R28060  11.977   1.123   5.285 -0.3052 -1.3292 -0.6269
  204DOPC   H3S28061  11.817   1.084   5.306  0.5967  0.6919 -1.6430
  204DOPC   C2428062  11.956   0.922   5.333  0.3116 -0.0302  0.2959
  204DOPC   H4R28063  11.878   0.852   5.369  1.7919 -1.7946  0.2212
  204DOPC   H4S28064  12.054   0.909   5.383  0.5062 -0.8168 -0.2691
  204DOPC   C2528065  11.970   0.885   5.179  0.0161  0.0441 -0.0948
  204DOPC   H5R28066  12.000   0.778   5.173 -0.2324 -0.0756  0.5913
  204DOPC   H5S28067  12.055   0.946   5.143 -0.6427  0.1978 -1.4608
  204DOPC   C2628068  11.841   0.920   5.089  0.0813 -0.0275 -0.0458
  204DOPC   H6R28069  11.820   1.029   5.083 -0.5038 -0.0703  1.0595
  204DOPC   H6S28070  11.751   0.873   5.133 -0.3943  0.0951 -0.8581
  204DOPC   C2728071  11.853   0.872   4.947 -0.0220 -0.0546  0.3664
  204DOPC   H7R28072  11.749   0.892   4.912  0.4263  1.7534 -0.0316
  204DOPC   H7S28073  11.874   0.763   4.939 -0.8010 -0.1724 -0.1640
  204DOPC   C2828074  11.954   0.949   4.857 -0.4106 -0.4024  0.1259
  204DOPC   H8R28075  12.050   0.924   4.906 -2.1655 -0.8257  3.6704
  204DOPC   H8S28076  11.939   1.056   4.879 -0.7841 -0.7333  1.6100
  204DOPC   C2928077  11.945   0.919   4.706  0.1127  0.0646  0.0811
  204DOPC   H9R28078  11.855   0.949   4.651 -0.1222 -0.8250 -0.0442
  204DOPC  C21028079  12.043   0.858   4.634  0.7827 -0.4512 -0.2435
  204DOPC  H10R28080  12.026   0.828   4.529  0.4981 -2.0320  0.2381
  204DOPC  C21128081  12.178   0.821   4.688  0.7097 -0.5797  0.2067
  204DOPC  H11R28082  12.221   0.902   4.751  1.5656  0.3249 -1.4544
  204DOPC  H11S28083  12.240   0.813   4.596  1.4131  1.7676  0.3998
  204DOPC  C21228084  12.167   0.688   4.758 -0.3758  0.2756  0.2741
  204DOPC  H12R28085  12.123   0.613   4.689  0.8048 -0.3554  0.1677
  204DOPC  H12S28086  12.099   0.685   4.846 -0.7056 -0.1791  0.0090
  204DOPC  C21328087  12.302   0.634   4.814  0.0713  0.1305 -0.4155
  204DOPC  H13R28088  12.281   0.539   4.867  1.0126  0.1955  0.0947
  204DOPC  H13S28089  12.346   0.698   4.894 -2.6544  3.0850 -1.0615
  204DOPC  C21428090  12.412   0.596   4.713 -0.2888  0.0913 -0.1271
  204DOPC  H14R28091  12.378   0.586   4.608  0.4588  0.5914 -0.4274
  204DOPC  H14S28092  12.445   0.496   4.749 -0.9754  0.1503  0.6946
  204DOPC  C21528093  12.538   0.685   4.737  0.0350  0.4139 -0.2572
  204DOPC  H15R28094  12.559   0.686   4.846 -1.0752  2.9006  0.0132
  204DOPC  H15S28095  12.507   0.788   4.708 -1.1761  0.8307  2.2870
  204DOPC  C21628096  12.661   0.633   4.661 -0.4175  0.1254  0.5150
  204DOPC  H16R28097  12.726   0.561   4.715  1.4953  1.6640  0.3382
  204DOPC  H16S28098  12.733   0.717   4.655  1.0566 -1.1437 -0.4432
  204DOPC  C21728099  12.636   0.597   4.505  0.6304  0.2601 -0.2153
  204DOPC  H17R28100  12.590   0.682   4.451  1.0911  0.9646  0.4825
  204DOPC  H17S28101  12.568   0.509   4.504  0.9111 -0.0050  1.3576
  204DOPC  C21828102  12.776   0.555   4.441  0.4424 -0.1757 -0.4065
  204DOPC  H18R28103  12.808   0.459   4.486  0.7675 -0.2639 -0.8295
  204DOPC  H18S28104  12.853   0.624   4.482 -1.3977  0.8027  1.6312
  204DOPC  H18T28105  12.772   0.560   4.330 -0.6404 -2.3079 -0.5095
  204DOPC   C3328106  12.507   1.224   5.287  0.0477  0.3628 -0.5460
  204DOPC   H3X28107  12.567   1.139   5.327 -0.3225 -0.0415 -0.8257
  204DOPC   H3Y28108  12.558   1.229   5.189  4.3244  0.8079  1.4983
  204DOPC   C3428109  12.365   1.179   5.261  0.0092 -0.3761  0.3530
  204DOPC   H4X28110  12.297   1.265   5.242  0.7735  0.7815  2.5216
  204DOPC   H4Y28111  12.330   1.140   5.359  0.4898 -1.1416  0.2305
  204DOPC   C3528112  12.368   1.074   5.150  0.1439  0.5462  0.1219
  204DOPC   H5X28113  12.305   0.997   5.200 -0.0467  1.5258  1.4517
  204DOPC   H5Y28114  12.472   1.040   5.132 -0.1938  0.4437 -1.7815
  204DOPC   C3628115  12.298   1.124   5.022  0.6881  0.4861 -0.0118
  204DOPC   H6X28116  12.271   1.026   4.976 -0.8224  0.8791 -0.0107
  204DOPC   H6Y28117  12.206   1.183   5.039  0.4505  0.6994 -1.8472
  204DOPC   C3728118  12.397   1.196   4.932  0.0140  0.3339  0.6103
  204DOPC   H7X28119  12.429   1.290   4.982 -1.8211  1.4456 -0.1913
  204DOPC   H7Y28120  12.493   1.144   4.914  0.9302  2.1378  0.0123
  204DOPC   C3828121  12.335   1.230   4.793 -0.8421  0.0992 -0.7926
  204DOPC   H8X28122  12.251   1.297   4.822 -0.3094  0.1132  0.7969
  204DOPC   H8Y28123  12.296   1.145   4.733  0.1447  0.1632 -1.5632
  204DOPC   C3928124  12.421   1.303   4.693  0.2243  0.5792  0.2729
  204DOPC   H9X28125  12.450   1.404   4.726 -1.0632  1.6633 -1.7351
  204DOPC  C31028126  12.459   1.269   4.564 -0.0728 -0.5602  0.1786
  204DOPC  H10X28127  12.522   1.338   4.506  0.4177 -0.8478  0.3633
  204DOPC  C31128128  12.409   1.146   4.489 -0.0306 -0.4164  0.2386
  204DOPC  H11X28129  12.303   1.155   4.458  0.0277 -0.3820  0.0464
  204DOPC  H11Y28130  12.403   1.057   4.554 -0.6529  0.4350  1.3796
  204DOPC  C31228131  12.496   1.129   4.360  0.4369  0.4817  1.2575
  204DOPC  H12X28132  12.604   1.141   4.382  0.4940  0.7565  0.8284
  204DOPC  H12Y28133  12.469   1.205   4.283 -0.3272  0.8912  1.9149
  204DOPC  C31328134  12.468   0.988   4.296 -0.1459 -0.0143 -0.1926
  204DOPC  H13X28135  12.526   0.912   4.352 -1.3704 -0.9563 -0.1665
  204DOPC  H13Y28136  12.363   0.962   4.319  0.1795  0.3075  1.8182
  204DOPC  C31428137  12.489   0.985   4.142 -0.4362 -0.1250 -0.6636
  204DOPC  H14X28138  12.410   1.050   4.098 -1.2412 -0.2400  0.5683
  204DOPC  H14Y28139  12.593   1.019   4.122 -0.9124  1.0634 -1.2332
  204DOPC  C31528140  12.479   0.843   4.079 -0.3487 -0.3209  0.4884
  204DOPC  H15X28141  12.384   0.800   4.116 -1.1465  1.0864  0.1749
  204DOPC  H15Y28142  12.558   0.775   4.117 -1.1507 -1.6472 -0.1546
  204DOPC  C31628143  12.465   0.851   3.921  0.1391 -0.4514  0.0255
  204DOPC  H16X28144  12.368   0.899   3.895 -0.8292 -1.6352  1.2722
  204DOPC  H16Y28145  12.551   0.911   3.884 -0.1927  0.0553  0.0524
  204DOPC  C31728146  12.473   0.718   3.846  0.5334 -0.1063  0.4611
  204DOPC  H17X28147  12.485   0.728   3.736 -1.3866  0.6079  0.2755
  204DOPC  H17Y28148  12.550   0.651   3.890 -0.2398 -1.6077 -0.4018
  204DOPC  C31828149  12.337   0.650   3.859  0.2888  0.5587 -0.4902
  204DOPC  H18X28150  12.315   0.623   3.965 -0.7467  1.8653 -0.3376
  204DOPC  H18Y28151  12.251   0.704   3.815 -1.5016 -2.2542 -0.6611
  204DOPC  H18Z28152  12.342   0.556   3.800 -0.3555  1.4139 -1.9516
  205DOPC     N28153   9.096   6.089   5.759  0.0793  0.8638  0.6568
  205DOPC   C1228154   9.155   5.954   5.738  0.2636  0.3125  0.1932
  205DOPC  H12A28155   9.071   5.885   5.732 -0.2659  1.0553 -1.3051
  205DOPC  H12B28156   9.209   5.918   5.825  0.3294  1.5593  0.6826
  205DOPC   C1328157   8.988   6.116   5.653  0.0006  0.2657  0.2073
  205DOPC  H13A28158   8.919   6.032   5.653  0.5636 -0.2159  1.0798
  205DOPC  H13B28159   8.935   6.205   5.683  1.1395  0.7189  0.9080
  205DOPC  H13C28160   9.032   6.130   5.556  0.2084 -0.7246  0.1486
  205DOPC   C1428161   9.196   6.197   5.744 -0.0719 -0.8111 -0.6002
  205DOPC  H14A28162   9.148   6.294   5.743  1.2180 -0.1320 -2.2945
  205DOPC  H14B28163   9.275   6.199   5.817 -0.9624  0.2982  0.3804
  205DOPC  H14C28164   9.250   6.194   5.650  1.3944 -0.1150  0.1878
  205DOPC   C1528165   9.028   6.105   5.892  0.2206 -0.3079  0.7422
  205DOPC  H15A28166   8.991   6.205   5.907  1.2766 -0.0272  1.6122
  205DOPC  H15B28167   9.101   6.084   5.969 -0.0812 -0.2397  1.0488
  205DOPC  H15C28168   8.946   6.040   5.919 -0.9182  1.6867  2.3009
  205DOPC   C1128169   9.233   5.926   5.609 -0.0991 -0.0534 -0.1296
  205DOPC  H11A28170   9.188   5.834   5.564 -0.6600  0.3345 -0.3782
  205DOPC  H11B28171   9.206   6.010   5.542 -0.8370  1.1051  1.5550
  205DOPC     P28172   9.428   5.781   5.688 -0.2463 -0.3187  0.3917
  205DOPC   O1328173   9.379   5.754   5.823  0.8135 -0.5986 -0.4413
  205DOPC   O1428174   9.573   5.777   5.660 -0.2230 -0.1264  0.1678
  205DOPC   O1228175   9.373   5.927   5.644  0.0010  0.1142 -0.3556
  205DOPC   O1128176   9.362   5.678   5.590 -0.1816  0.1416  0.1109
  205DOPC    C128177   9.374   5.681   5.449 -0.5625  0.4948  0.1204
  205DOPC    HA28178   9.475   5.707   5.409 -0.3916 -0.9209 -0.4366
  205DOPC    HB28179   9.300   5.749   5.401 -0.7810 -1.6672 -2.9364
  205DOPC    C228180   9.345   5.538   5.395 -0.4544 -0.2142 -0.3684
  205DOPC    HS28181   9.426   5.469   5.427 -2.1517 -1.2374  2.0995
  205DOPC   O2128182   9.331   5.556   5.252 -0.2739  0.3465 -0.3722
  205DOPC   C2128183   9.397   5.462   5.183 -0.4404  0.6498  0.0147
  205DOPC   O2228184   9.459   5.371   5.233 -0.1519 -0.1160  0.2196
  205DOPC   C2228185   9.375   5.477   5.036  0.1623 -0.0971 -0.4499
  205DOPC   H2R28186   9.395   5.585   5.016  0.7406  0.2941  1.9895
  205DOPC   H2S28187   9.271   5.448   5.009  0.9974 -1.0983 -2.8079
  205DOPC    C328188   9.212   5.486   5.437  0.4093  0.8656  0.1586
  205DOPC    HX28189   9.131   5.554   5.407 -0.2866  0.1672  0.4189
  205DOPC    HY28190   9.209   5.482   5.548 -1.5033 -1.3796  0.1050
  205DOPC   O3128191   9.186   5.355   5.377  0.0035  0.3861  0.1981
  205DOPC   C3128192   9.206   5.246   5.438  0.3930 -0.1423 -0.2044
  205DOPC   O3228193   9.223   5.234   5.558  0.3667  0.6772 -0.3178
  205DOPC   C3228194   9.210   5.130   5.343 -0.2749  0.8602  0.3913
  205DOPC   H2X28195   9.312   5.119   5.301 -0.4246  0.6215  0.0936
  205DOPC   H2Y28196   9.177   5.038   5.395  1.8908 -0.4102 -0.3698
  205DOPC   C2328197   9.455   5.390   4.936  0.3354  0.3096 -0.1414
  205DOPC   H3R28198   9.418   5.286   4.946  0.4066  0.4344  1.7037
  205DOPC   H3S28199   9.565   5.397   4.949  0.6990  0.8972 -2.9650
  205DOPC   C2428200   9.421   5.421   4.795 -0.0745 -0.0779 -0.8576
  205DOPC   H4R28201   9.452   5.527   4.788  0.6265 -0.3290 -2.0112
  205DOPC   H4S28202   9.315   5.402   4.769  0.2716 -0.1091 -2.3321
  205DOPC   C2528203   9.496   5.330   4.700 -0.3725  0.7119  0.6618
  205DOPC   H5R28204   9.461   5.225   4.715 -0.3087  0.7882  1.3981
  205DOPC   H5S28205   9.603   5.335   4.728  0.1367  0.9336 -1.2103
  205DOPC   C2628206   9.480   5.370   4.554 -0.1144 -0.2226 -0.0729
  205DOPC   H6R28207   9.499   5.479   4.548  1.0335 -0.3218  1.1990
  205DOPC   H6S28208   9.370   5.357   4.540 -0.2481 -1.3666  1.6529
  205DOPC   C2728209   9.546   5.285   4.448  0.4043 -0.1337 -0.2089
  205DOPC   H7R28210   9.466   5.280   4.372  0.7231  2.2185 -0.7696
  205DOPC   H7S28211   9.546   5.179   4.483  1.7074  0.4149  1.6500
  205DOPC   C2828212   9.679   5.330   4.400 -0.0381 -0.6289  0.1864
  205DOPC   H8R28213   9.716   5.255   4.327  0.2953 -0.4832  0.2024
  205DOPC   H8S28214   9.765   5.319   4.469  2.7754  1.2601 -2.7408
  205DOPC   C2928215   9.692   5.476   4.358  0.5266  0.1190  0.2730
  205DOPC   H9R28216   9.700   5.555   4.434 -0.4974  1.1299 -0.6349
  205DOPC  C21028217   9.668   5.516   4.233 -0.5917 -0.5190  0.0373
  205DOPC  H10R28218   9.678   5.624   4.216  0.8625 -0.8040 -1.1970
  205DOPC  C21128219   9.641   5.438   4.104 -0.0501 -0.5374  0.1948
  205DOPC  H11R28220   9.600   5.336   4.116 -2.7732  0.6442  2.0534
  205DOPC  H11S28221   9.727   5.428   4.034  0.9443  1.0686  1.1212
  205DOPC  C21228222   9.535   5.526   4.028 -0.5128 -0.0821  0.1037
  205DOPC  H12R28223   9.516   5.486   3.926 -1.1337  1.7814 -0.5380
  205DOPC  H12S28224   9.573   5.629   4.018 -0.3078 -0.2494 -1.0639
  205DOPC  C21328225   9.398   5.532   4.102 -0.3615 -0.0297 -0.3708
  205DOPC  H13R28226   9.332   5.607   4.053 -1.4590 -1.3166 -0.9345
  205DOPC  H13S28227   9.407   5.566   4.208 -3.4168  0.0832 -0.0608
  205DOPC  C21428228   9.317   5.401   4.093 -0.1611 -0.2408  0.6138
  205DOPC  H14R28229   9.372   5.324   4.150 -0.1888 -1.4074 -0.8731
  205DOPC  H14S28230   9.328   5.384   3.984 -0.8998  0.6080  0.3940
  205DOPC  C21528231   9.169   5.405   4.140 -0.6399 -0.7064  0.1820
  205DOPC  H15R28232   9.112   5.469   4.069 -1.0633  0.2222  1.3141
  205DOPC  H15S28233   9.163   5.443   4.244  0.5858 -0.7062  0.2670
  205DOPC  C21628234   9.107   5.269   4.142  0.1819 -0.0867  0.5363
  205DOPC  H16R28235   9.006   5.273   4.188  0.4772  0.4947  1.1482
  205DOPC  H16S28236   9.166   5.199   4.207  2.3614 -0.1704 -1.3901
  205DOPC  C21728237   9.103   5.193   4.001  0.1300 -0.7898 -0.0468
  205DOPC  H17R28238   9.207   5.177   3.965  0.9218  0.0941  1.7448
  205DOPC  H17S28239   9.056   5.256   3.922  0.4642 -0.0546  0.3391
  205DOPC  C21828240   9.024   5.067   4.016 -0.0669 -0.3024  0.1832
  205DOPC  H18R28241   9.080   4.989   4.072 -0.8956 -1.2028 -0.1953
  205DOPC  H18S28242   8.989   5.036   3.915 -1.5537  1.2323  0.1886
  205DOPC  H18T28243   8.930   5.088   4.072 -0.9559  1.9666 -1.9420
  205DOPC   C3328244   9.124   5.152   5.217 -0.2972  0.1544 -0.5967
  205DOPC   H3X28245   9.163   5.237   5.157 -0.0884  0.3083 -0.2445
  205DOPC   H3Y28246   9.019   5.171   5.250  0.1158 -0.0996  0.9721
  205DOPC   C3428247   9.146   5.037   5.123 -0.5173  0.4153  0.7438
  205DOPC   H4X28248   9.096   4.950   5.171  1.0208 -2.2719 -2.1907
  205DOPC   H4Y28249   9.253   5.011   5.112 -0.2118  1.3862  1.2574
  205DOPC   C3528250   9.095   5.061   4.980 -0.0607 -0.0523 -0.3967
  205DOPC   H5X28251   9.167   5.129   4.931 -0.4060  1.9907  1.7545
  205DOPC   H5Y28252   8.998   5.114   4.973 -0.6141 -0.9002  0.5936
  205DOPC   C3628253   9.080   4.930   4.905 -0.4651 -0.1662 -0.0113
  205DOPC   H6X28254   9.019   4.858   4.964 -1.5454 -2.2698 -3.3630
  205DOPC   H6Y28255   9.015   4.939   4.815  0.1124  1.3491 -0.3111
  205DOPC   C3728256   9.210   4.864   4.856 -0.1185  0.4458 -0.0812
  205DOPC   H7X28257   9.277   4.866   4.945  0.6077 -0.2693 -0.6051
  205DOPC   H7Y28258   9.194   4.756   4.836 -1.8075  0.5210  0.7092
  205DOPC   C3828259   9.269   4.932   4.737  0.7561 -0.4115 -0.2807
  205DOPC   H8X28260   9.268   5.038   4.770 -2.0437 -0.9366  1.6509
  205DOPC   H8Y28261   9.213   4.934   4.641 -1.5762 -0.3065  1.0091
  205DOPC   C3928262   9.412   4.888   4.712  0.5607 -0.8617 -0.3334
  205DOPC   H9X28263   9.473   4.897   4.803 -0.8271 -1.5111  0.7019
  205DOPC  C31028264   9.464   4.847   4.592  0.2957 -0.1378 -0.3339
  205DOPC  H10X28265   9.573   4.829   4.589  0.2682 -0.8981  1.4990
  205DOPC  C31128266   9.391   4.832   4.468 -0.0222  0.3293  0.4155
  205DOPC  H11X28267   9.285   4.804   4.480  0.3956 -1.1522  0.8342
  205DOPC  H11Y28268   9.435   4.747   4.412  0.7465  2.3303 -2.2621
  205DOPC  C31228269   9.407   4.953   4.375 -0.4805  0.1126 -0.8880
  205DOPC  H12X28270   9.513   4.973   4.352 -1.0375 -0.6997 -4.9980
  205DOPC  H12Y28271   9.374   5.045   4.427 -0.2873  0.3163 -1.1259
  205DOPC  C31328272   9.323   4.936   4.245  0.7514 -0.4295  0.1410
  205DOPC  H13X28273   9.216   4.934   4.278  1.4846  3.3950  3.5193
  205DOPC  H13Y28274   9.345   5.034   4.198  1.6783 -0.2072  1.0136
  205DOPC  C31428275   9.367   4.827   4.149 -0.3132  0.2865 -0.6061
  205DOPC  H14X28276   9.471   4.856   4.125 -0.5313  0.5828 -1.2485
  205DOPC  H14Y28277   9.366   4.725   4.193 -1.8593  1.1650  1.5398
  205DOPC  C31528278   9.281   4.824   4.012 -0.5107 -0.1944  0.0099
  205DOPC  H15X28279   9.277   4.925   3.965  1.2855  0.9444  2.1047
  205DOPC  H15Y28280   9.177   4.794   4.036 -1.5819  2.0756 -1.4811
  205DOPC  C31628281   9.348   4.722   3.915 -0.2101  0.5387  0.2915
  205DOPC  H16X28282   9.444   4.760   3.875 -0.4809 -1.1826 -2.1993
  205DOPC  H16Y28283   9.368   4.633   3.978  1.8256 -0.4721 -1.6359
  205DOPC  C31728284   9.255   4.679   3.804 -0.2106 -0.1785 -0.0063
  205DOPC  H17X28285   9.153   4.654   3.841 -0.7304  0.4943 -0.9282
  205DOPC  H17Y28286   9.231   4.754   3.725 -1.9199 -1.5068 -0.8283
  205DOPC  C31828287   9.292   4.549   3.738  0.0246  0.3318  0.1917
  205DOPC  H18X28288   9.333   4.480   3.815 -0.6428 -0.3707 -0.0662
  205DOPC  H18Y28289   9.207   4.500   3.686  0.0394  1.4524 -0.9378
  205DOPC  H18Z28290   9.379   4.560   3.670  0.8897 -0.4071  1.1420
  206DOPC     N28291  10.892   0.587   6.539  0.4284  0.1192 -0.2874
  206DOPC   C1228292  11.004   0.624   6.444  0.2674  0.6342 -0.2807
  206DOPC  H12A28293  11.085   0.556   6.466  0.4635  0.0178 -2.6253
  206DOPC  H12B28294  11.037   0.726   6.461 -0.0642  0.4788  1.4930
  206DOPC   C1328295  10.825   0.458   6.501  0.0754  0.2979  0.1918
  206DOPC  H13A28296  10.896   0.378   6.486 -0.3355  0.0012 -0.1564
  206DOPC  H13B28297  10.743   0.425   6.562 -0.4209 -1.9944 -1.5912
  206DOPC  H13C28298  10.782   0.475   6.403  0.2758  0.9633  0.2145
  206DOPC   C1428299  10.790   0.695   6.539  0.3931 -0.1470  0.0849
  206DOPC  H14A28300  10.753   0.717   6.440 -0.4828 -1.2190  0.1515
  206DOPC  H14B28301  10.700   0.671   6.594 -0.2240 -2.0780 -1.6279
  206DOPC  H14C28302  10.820   0.792   6.575 -2.1679  0.7124  0.1423
  206DOPC   C1528303  10.956   0.570   6.679  0.6777  0.8130  0.3246
  206DOPC  H15A28304  10.876   0.546   6.748  0.9432  0.6966  0.5951
  206DOPC  H15B28305  11.005   0.658   6.719 -0.3288 -0.1722  4.1539
  206DOPC  H15C28306  11.018   0.482   6.679 -1.1118 -0.5170 -0.3329
  206DOPC   C1128307  10.981   0.614   6.295 -0.1220  0.5050 -0.0270
  206DOPC  H11A28308  11.070   0.614   6.228 -0.7851 -1.7929 -0.9897
  206DOPC  H11B28309  10.927   0.522   6.265 -2.7454  2.0215 -0.2821
  206DOPC     P28310  10.960   0.865   6.213  0.2158 -0.0982 -0.5673
  206DOPC   O1328311  11.042   0.909   6.330  0.3304  0.2459  0.8419
  206DOPC   O1428312  10.864   0.965   6.155  0.3934 -0.2088  0.0915
  206DOPC   O1228313  10.892   0.723   6.260  0.0056 -0.0497  0.8538
  206DOPC   O1128314  11.068   0.836   6.094 -0.2620  0.4513 -0.0992
  206DOPC    C128315  11.034   0.765   5.975 -0.1336 -0.3841  0.2005
  206DOPC    HA28316  10.927   0.779   5.950  0.0322 -0.5328 -0.6568
  206DOPC    HB28317  11.051   0.657   5.991  0.1407 -0.1112  1.9015
  206DOPC    C228318  11.120   0.819   5.861 -0.4076 -0.1233 -0.4354
  206DOPC    HS28319  11.226   0.830   5.893 -1.4945  2.4229  2.8016
  206DOPC   O2128320  11.072   0.949   5.821 -0.1651  0.0500  0.2073
  206DOPC   C2128321  11.163   1.028   5.777 -0.7342 -0.2914  0.3822
  206DOPC   O2228322  11.278   0.992   5.761 -0.4958 -0.3428  0.2788
  206DOPC   C2228323  11.116   1.174   5.757  0.1896 -0.0006  0.0545
  206DOPC   H2R28324  11.196   1.239   5.798  1.7996 -1.8291 -0.0749
  206DOPC   H2S28325  11.014   1.188   5.801 -0.5564 -0.3105 -1.4915
  206DOPC    C328326  11.116   0.714   5.739  0.6689 -0.1371  0.4331
  206DOPC    HX28327  11.010   0.698   5.709  0.8920 -0.8027 -0.0399
  206DOPC    HY28328  11.148   0.615   5.780  0.5443 -0.0780  0.6745
  206DOPC   O3128329  11.180   0.761   5.622 -0.0840  0.5639  0.2937
  206DOPC   C3128330  11.309   0.718   5.613  1.0033 -0.0657  0.5237
  206DOPC   O3228331  11.360   0.639   5.684 -0.0858 -0.1107 -0.2461
  206DOPC   C3228332  11.381   0.812   5.518 -0.7433  0.5351 -0.2722
  206DOPC   H2X28333  11.313   0.889   5.475 -1.4159  0.3868  0.4935
  206DOPC   H2Y28334  11.458   0.865   5.577 -1.2461  0.8629  0.1017
  206DOPC   C2328335  11.087   1.211   5.613 -0.1054 -1.1816  0.2484
  206DOPC   H3R28336  11.179   1.219   5.551 -0.6599  0.5123 -0.4192
  206DOPC   H3S28337  11.057   1.318   5.612  0.0191 -1.1394  0.7744
  206DOPC   C2428338  10.997   1.123   5.531 -0.7760 -0.3961  0.9946
  206DOPC   H4R28339  10.892   1.120   5.566 -1.2029 -1.7117 -0.2980
  206DOPC   H4S28340  11.033   1.018   5.526  1.3154  0.2915  0.5619
  206DOPC   C2528341  11.001   1.152   5.375 -0.0452 -0.0430 -0.5743
  206DOPC   H5R28342  11.106   1.168   5.341  0.1985  0.8400  0.5311
  206DOPC   H5S28343  10.953   1.252   5.369 -0.5435 -0.1533  1.0782
  206DOPC   C2628344  10.933   1.045   5.285  0.2623  0.7557  0.5807
  206DOPC   H6R28345  10.914   1.088   5.184 -1.5195  1.3494  1.1266
  206DOPC   H6S28346  10.836   1.022   5.333  1.0061 -3.5451  0.4117
  206DOPC   C2728347  11.009   0.914   5.270  0.3738 -0.4534 -0.2281
  206DOPC   H7R28348  11.047   0.888   5.371  1.0281 -2.3031 -0.9135
  206DOPC   H7S28349  11.094   0.924   5.199 -0.7394  1.0629 -1.4199
  206DOPC   C2828350  10.924   0.791   5.224  0.1238  0.3644 -0.0342
  206DOPC   H8R28351  10.831   0.788   5.284 -0.1542 -0.0595 -0.4817
  206DOPC   H8S28352  10.980   0.695   5.229 -0.7891 -0.1861 -0.1507
  206DOPC   C2928353  10.887   0.819   5.080 -0.5294 -0.1550 -0.1841
  206DOPC   H9R28354  10.787   0.864   5.072  0.0638  0.9514 -2.1622
  206DOPC  C21028355  10.952   0.778   4.962 -0.3196  0.7036 -0.1590
  206DOPC  H10R28356  10.907   0.806   4.865 -1.5712  1.0858  0.5187
  206DOPC  C21128357  11.089   0.709   4.949 -0.0006  0.1786  0.5854
  206DOPC  H11R28358  11.156   0.720   5.037 -0.2482 -2.3764  1.1731
  206DOPC  H11S28359  11.142   0.750   4.860 -1.0837  0.1544 -0.0868
  206DOPC  C21228360  11.087   0.555   4.917  0.1344  0.1955 -0.0226
  206DOPC  H12R28361  11.187   0.530   4.875  0.5919  2.3016 -0.3152
  206DOPC  H12S28362  11.018   0.527   4.835  1.0292  1.4127 -1.2483
  206DOPC  C21328363  11.057   0.455   5.027  0.0987  0.3165  0.1607
  206DOPC  H13R28364  11.101   0.506   5.115  2.3598  0.1108 -0.7885
  206DOPC  H13S28365  11.111   0.358   5.020  0.8971  0.5971  2.0075
  206DOPC  C21428366  10.901   0.431   5.046  0.3837 -0.5889 -0.2302
  206DOPC  H14R28367  10.863   0.366   4.965 -0.8875  0.3656 -0.4312
  206DOPC  H14S28368  10.850   0.529   5.041 -2.8355 -2.1491 -0.9198
  206DOPC  C21528369  10.859   0.376   5.189  0.3396  0.2080  0.4026
  206DOPC  H15R28370  10.753   0.345   5.180  0.6211 -0.3313 -1.5391
  206DOPC  H15S28371  10.875   0.453   5.268  0.6568 -0.2331  0.7710
  206DOPC  C21628372  10.937   0.256   5.231  1.1382  0.4929 -0.1400
  206DOPC  H16R28373  10.904   0.221   5.331 -2.2896  2.4135 -0.4448
  206DOPC  H16S28374  11.042   0.285   5.250  1.1049  0.2146  0.5128
  206DOPC  C21728375  10.919   0.137   5.136  0.6912  0.0975  0.4216
  206DOPC  H17R28376  10.937   0.155   5.028 -0.6897  1.6207  0.3918
  206DOPC  H17S28377  10.815   0.098   5.129  1.0080 -0.9548  1.3633
  206DOPC  C21828378  11.003   0.010   5.170 -0.1894  0.7215 -0.5643
  206DOPC  H18R28379  11.110   0.038   5.173 -0.3745  1.6136 -1.5536
  206DOPC  H18S28380  10.997  -0.066   5.089  2.1221  0.2844 -0.3969
  206DOPC  H18T28381  10.977  -0.032   5.270  0.4121  1.2575 -0.1777
  206DOPC   C3328382  11.447   0.723   5.402 -1.0069 -0.0905 -0.2683
  206DOPC   H3X28383  11.373   0.661   5.346  0.0520 -1.5780 -0.0901
  206DOPC   H3Y28384  11.526   0.660   5.448 -0.8875  1.6067  2.0007
  206DOPC   C3428385  11.510   0.812   5.290 -0.8177  0.5630 -0.2491
  206DOPC   H4X28386  11.559   0.747   5.214  2.1996  0.3213  1.7187
  206DOPC   H4Y28387  11.577   0.889   5.333  0.6888 -0.0349 -1.4333
  206DOPC   C3528388  11.407   0.885   5.200  0.0216 -0.0760 -0.2947
  206DOPC   H5X28389  11.345   0.952   5.264  0.7396  1.3285 -1.0119
  206DOPC   H5Y28390  11.338   0.812   5.153 -0.9940  2.0593 -2.3590
  206DOPC   C3628391  11.476   0.971   5.091 -0.0419  0.6469 -0.3420
  206DOPC   H6X28392  11.539   1.035   5.157 -1.7463 -1.2183  3.4202
  206DOPC   H6Y28393  11.535   0.917   5.015  0.9809  1.2225  0.0264
  206DOPC   C3728394  11.375   1.062   5.018 -0.9284  0.7252 -0.1440
  206DOPC   H7X28395  11.283   1.057   5.080 -0.0123 -3.6014  1.2144
  206DOPC   H7Y28396  11.400   1.170   5.022 -1.2345  0.7669  1.1739
  206DOPC   C3828397  11.328   1.018   4.880 -0.6270 -1.4778  0.0713
  206DOPC   H8X28398  11.231   1.073   4.875  0.1179  0.3814  3.2134
  206DOPC   H8Y28399  11.307   0.909   4.870 -3.3321 -1.1205  1.0029
  206DOPC   C3928400  11.431   1.044   4.772  0.2353 -0.1271 -0.2402
  206DOPC   H9X28401  11.523   0.985   4.790  1.4457  1.6180 -0.5128
  206DOPC  C31028402  11.426   1.122   4.659  0.8129  0.2388 -0.1438
  206DOPC  H10X28403  11.516   1.131   4.597  3.4994 -1.1677  3.2317
  206DOPC  C31128404  11.297   1.199   4.617  0.8907  0.1804  0.4883
  206DOPC  H11X28405  11.338   1.287   4.564 -0.1137  0.5504  0.3094
  206DOPC  H11Y28406  11.251   1.235   4.712  0.0583  2.4270 -0.7052
  206DOPC  C31228407  11.204   1.119   4.528  0.7815  1.0444  0.3595
  206DOPC  H12X28408  11.265   1.059   4.457 -1.2896 -1.5608  0.5992
  206DOPC  H12Y28409  11.147   1.195   4.471 -0.3980  0.3501  0.5579
  206DOPC  C31328410  11.097   1.027   4.597 -0.0471  0.5053 -0.2476
  206DOPC  H13X28411  11.162   0.948   4.640 -1.0743  0.2377  0.8623
  206DOPC  H13Y28412  11.043   1.069   4.684 -2.2825 -0.1216 -1.2411
  206DOPC  C31428413  10.998   0.972   4.496 -0.2625 -0.2026  0.4745
  206DOPC  H14X28414  10.935   1.062   4.476  0.6801  0.5907  0.9698
  206DOPC  H14Y28415  11.046   0.955   4.398 -0.8884 -0.1525  0.1532
  206DOPC  C31528416  10.917   0.850   4.531 -0.1224  1.0317 -0.2254
  206DOPC  H15X28417  10.841   0.828   4.453  0.7145 -2.7946 -0.1569
  206DOPC  H15Y28418  10.866   0.858   4.629 -2.9033  0.6057 -1.5449
  206DOPC  C31628419  11.011   0.720   4.541  0.4279 -0.8343 -0.3421
  206DOPC  H16X28420  11.075   0.722   4.450  0.6293 -0.5122 -0.1941
  206DOPC  H16Y28421  11.067   0.730   4.636 -0.4103  0.3735  0.0521
  206DOPC  C31728422  10.933   0.589   4.530 -0.1097  0.2735  0.3762
  206DOPC  H17X28423  10.902   0.575   4.424 -0.5536 -1.2854  0.6832
  206DOPC  H17Y28424  10.988   0.497   4.561 -0.4429 -0.4680 -1.1442
  206DOPC  C31828425  10.799   0.593   4.603  0.2800  0.4670 -0.7838
  206DOPC  H18X28426  10.735   0.680   4.579 -0.4587  0.4089  0.7998
  206DOPC  H18Y28427  10.740   0.500   4.583 -0.0361  0.4978 -0.0338
  206DOPC  H18Z28428  10.807   0.603   4.714 -1.5960 -1.5495 -0.3900
  207DOPC     N28429   1.671   9.570   6.189  0.1892 -0.4559 -0.5449
  207DOPC   C1228430   1.539   9.508   6.223 -0.2363  0.2272  0.1338
  207DOPC  H12A28431   1.552   9.406   6.187  0.2886 -0.0655  1.1331
  207DOPC  H12B28432   1.453   9.557   6.181 -0.2996  0.8902  1.0211
  207DOPC   C1328433   1.685   9.704   6.249  0.3250  0.3632  0.1534
  207DOPC  H13A28434   1.689   9.703   6.357 -0.0876 -0.0656  0.1679
  207DOPC  H13B28435   1.779   9.747   6.218 -0.7433  0.5608 -3.2811
  207DOPC  H13C28436   1.611   9.778   6.220  2.3789  1.6477 -2.1767
  207DOPC   C1428437   1.679   9.578   6.040 -0.1689 -0.5471 -0.3933
  207DOPC  H14A28438   1.696   9.481   5.996  0.6026 -0.1029 -1.1197
  207DOPC  H14B28439   1.589   9.619   5.997  0.3402 -0.9139 -1.8851
  207DOPC  H14C28440   1.752   9.649   6.005 -2.1695 -0.3290 -4.7980
  207DOPC   C1528441   1.779   9.482   6.252 -0.7303  1.0104  0.6514
  207DOPC  H15A28442   1.808   9.402   6.186  0.3045 -0.5453  2.8567
  207DOPC  H15B28443   1.745   9.438   6.344 -2.9770  1.5000  0.1102
  207DOPC  H15C28444   1.866   9.546   6.257  1.2136 -1.3230 -0.8231
  207DOPC   C1128445   1.515   9.494   6.373 -0.4096  0.0322 -0.3037
  207DOPC  H11A28446   1.583   9.419   6.417 -2.0200 -2.4382 -1.7986
  207DOPC  H11B28447   1.532   9.588   6.431 -3.2888  0.3081  0.2402
  207DOPC     P28448   1.256   9.536   6.354 -0.1310 -0.0212  0.1447
  207DOPC   O1328449   1.296   9.679   6.351 -0.1849  0.4479 -0.4226
  207DOPC   O1428450   1.158   9.501   6.456 -0.2327 -0.1437 -0.0031
  207DOPC   O1228451   1.384   9.449   6.395 -0.5384 -0.0788 -0.2039
  207DOPC   O1128452   1.233   9.476   6.213  1.0987 -0.8583 -0.4683
  207DOPC    C128453   1.186   9.350   6.182 -0.8953  0.5406  0.0949
  207DOPC    HA28454   1.075   9.353   6.193 -0.9246  0.0781 -0.0517
  207DOPC    HB28455   1.236   9.269   6.239  1.1254  1.4806 -0.2811
  207DOPC    C228456   1.212   9.312   6.033 -0.8186 -0.9576  0.1304
  207DOPC    HS28457   1.323   9.305   6.029 -0.6440  1.4030 -1.6085
  207DOPC   O2128458   1.161   9.416   5.939 -0.5240 -0.7835  0.3786
  207DOPC   C2128459   1.249   9.515   5.925 -0.2311  0.6767  0.4942
  207DOPC   O2228460   1.353   9.528   5.985 -0.4009 -0.6483 -0.7525
  207DOPC   C2228461   1.221   9.611   5.811  0.0820 -0.4717  0.1079
  207DOPC   H2R28462   1.127   9.667   5.829 -0.6366 -1.1439 -1.4198
  207DOPC   H2S28463   1.212   9.555   5.715  0.2381  0.1469 -0.2734
  207DOPC    C328464   1.145   9.179   5.991 -0.8306  0.5396  0.6607
  207DOPC    HX28465   1.036   9.200   5.987 -0.9447  0.2004  1.6396
  207DOPC    HY28466   1.168   9.106   6.071  4.5947  1.9195  0.7431
  207DOPC   O3128467   1.187   9.142   5.856  0.0343 -0.1945 -0.3680
  207DOPC   C3128468   1.300   9.069   5.841 -0.5548 -0.4375 -0.3616
  207DOPC   O3228469   1.367   9.023   5.931 -0.2170  0.2313  0.0108
  207DOPC   C3228470   1.340   9.057   5.696 -0.4025  0.6176 -0.3827
  207DOPC   H2X28471   1.449   9.037   5.702 -0.7778 -1.1833  1.4372
  207DOPC   H2Y28472   1.309   8.957   5.658  1.1548  0.4789 -1.3731
  207DOPC   C2328473   1.333   9.719   5.798  0.5955  0.2142 -0.3826
  207DOPC   H3R28474   1.430   9.678   5.763  0.5406 -1.2924  1.1213
  207DOPC   H3S28475   1.348   9.778   5.891  0.7699  0.9984 -0.8939
  207DOPC   C2428476   1.295   9.832   5.695 -0.9029  0.4167  0.2316
  207DOPC   H4R28477   1.389   9.889   5.680  0.0365 -1.5880 -2.3431
  207DOPC   H4S28478   1.217   9.899   5.737 -1.8348 -0.5049  0.0311
  207DOPC   C2528479   1.251   9.780   5.548  0.0406 -0.4120 -0.0424
  207DOPC   H5R28480   1.249   9.875   5.490 -0.9532  0.1289  0.8468
  207DOPC   H5S28481   1.147   9.741   5.549  0.4144 -1.4307  0.2229
  207DOPC   C2628482   1.352   9.692   5.484 -0.4071  0.2106  0.0112
  207DOPC   H6R28483   1.389   9.616   5.556  2.5323 -0.5893 -2.1798
  207DOPC   H6S28484   1.449   9.743   5.464 -1.2518  2.3194  0.9997
  207DOPC   C2728485   1.308   9.597   5.361  0.0257 -0.4788 -0.7451
  207DOPC   H7R28486   1.246   9.514   5.402  1.3624 -1.3166 -0.3498
  207DOPC   H7S28487   1.396   9.548   5.315  0.7588  1.4837 -1.5567
  207DOPC   C2828488   1.235   9.676   5.260  0.2415  0.1922 -0.1484
  207DOPC   H8R28489   1.298   9.753   5.210  0.6621 -0.7520 -1.1049
  207DOPC   H8S28490   1.147   9.715   5.315 -0.2000 -1.6035  0.4749
  207DOPC   C2928491   1.176   9.599   5.147  0.0734 -0.1184  0.4657
  207DOPC   H9R28492   1.156   9.494   5.173  1.8182 -0.2708  1.3583
  207DOPC  C21028493   1.158   9.634   5.019 -0.5752  0.7225 -0.4953
  207DOPC  H10R28494   1.104   9.555   4.964 -0.7893 -1.5547  2.6950
  207DOPC  C21128495   1.191   9.759   4.947  0.7824 -0.1213 -0.0531
  207DOPC  H11R28496   1.225   9.839   5.016  1.1732 -0.5629  0.2724
  207DOPC  H11S28497   1.099   9.815   4.919  0.4658 -0.5655  0.0956
  207DOPC  C21228498   1.282   9.755   4.823 -0.2130  0.4679  0.6394
  207DOPC  H12R28499   1.385   9.726   4.852 -0.5172  0.4110  1.7152
  207DOPC  H12S28500   1.294   9.861   4.792 -0.4725  0.0286 -1.1014
  207DOPC  C21328501   1.244   9.661   4.706 -0.2095  0.3854  0.2810
  207DOPC  H13R28502   1.137   9.688   4.688 -0.2488 -0.4007 -0.7278
  207DOPC  H13S28503   1.251   9.555   4.736 -0.2954  0.7409  1.6123
  207DOPC  C21428504   1.316   9.673   4.575 -0.0696  0.5280  0.1374
  207DOPC  H14R28505   1.313   9.579   4.517  0.2251 -1.0061  2.4889
  207DOPC  H14S28506   1.421   9.701   4.599  0.3874 -0.9787 -0.0365
  207DOPC  C21528507   1.251   9.781   4.484 -0.1406 -0.1361 -0.0123
  207DOPC  H15R28508   1.255   9.871   4.549 -0.0578 -0.7068  0.8024
  207DOPC  H15S28509   1.143   9.757   4.470  0.3455 -2.9400  0.4237
  207DOPC  C21628510   1.321   9.797   4.353  0.8250 -0.6443  0.0816
  207DOPC  H16R28511   1.325   9.694   4.310 -0.1230 -1.6190  2.1474
  207DOPC  H16S28512   1.428   9.826   4.360  1.0116 -0.8653 -1.4278
  207DOPC  C21728513   1.235   9.893   4.260  0.5996  0.0942 -0.0748
  207DOPC  H17R28514   1.228  10.000   4.291 -0.3784 -0.9933  4.0977
  207DOPC  H17S28515   1.128   9.864   4.266  0.6568 -0.3682 -1.1612
  207DOPC  C21828516   1.271   9.885   4.113 -0.3809  0.6209  0.6652
  207DOPC  H18R28517   1.191   9.928   4.049  1.0340  2.3663 -0.0334
  207DOPC  H18S28518   1.285   9.777   4.092 -1.5840  1.1178 -3.4873
  207DOPC  H18T28519   1.366   9.937   4.085  1.1005 -2.5467 -0.6970
  207DOPC   C3328520   1.289   9.153   5.583 -0.0055  0.0354  0.1934
  207DOPC   H3X28521   1.323   9.257   5.605 -3.2557  0.4660  4.4628
  207DOPC   H3Y28522   1.179   9.166   5.575 -0.1638 -1.1020  0.3341
  207DOPC   C3428523   1.339   9.102   5.446  0.2013 -0.2020 -0.4661
  207DOPC   H4X28524   1.269   9.021   5.417 -0.2366 -0.3580  0.9233
  207DOPC   H4Y28525   1.441   9.058   5.457 -0.2047 -0.9459  0.4629
  207DOPC   C3528526   1.358   9.221   5.348  0.0453  0.8245 -0.0907
  207DOPC   H5X28527   1.445   9.270   5.398  1.2006 -1.7329  0.6295
  207DOPC   H5Y28528   1.276   9.294   5.358 -1.0536 -0.4739  0.7843
  207DOPC   C3628529   1.373   9.173   5.198 -0.2175 -0.5214  0.4883
  207DOPC   H6X28530   1.464   9.113   5.178  0.5179  0.8482 -0.4602
  207DOPC   H6Y28531   1.282   9.112   5.180 -0.3592 -0.6961  1.7258
  207DOPC   C3728532   1.368   9.279   5.094 -0.0236  0.2909 -0.5272
  207DOPC   H7X28533   1.267   9.323   5.090 -0.0821  0.0558 -2.6261
  207DOPC   H7Y28534   1.437   9.360   5.125  0.9436 -0.0799 -1.6103
  207DOPC   C3828535   1.403   9.223   4.959 -0.3092  0.8171  0.5718
  207DOPC   H8X28536   1.339   9.135   4.935  0.9183 -0.2353  1.0728
  207DOPC   H8Y28537   1.509   9.190   4.965 -0.1250  1.4646  0.9634
  207DOPC   C3928538   1.387   9.326   4.845  0.3591  0.1911  0.4874
  207DOPC   H9X28539   1.378   9.431   4.874  1.0246  0.9031 -1.6708
  207DOPC  C31028540   1.359   9.294   4.723  0.0868  0.1934  0.6551
  207DOPC  H10X28541   1.335   9.370   4.647 -0.2577 -0.2610  0.3026
  207DOPC  C31128542   1.357   9.153   4.677 -0.4358 -0.8832 -0.2840
  207DOPC  H11X28543   1.281   9.153   4.596 -0.2266 -0.7419 -0.4821
  207DOPC  H11Y28544   1.315   9.081   4.750  1.1790 -0.7730  0.7994
  207DOPC  C31228545   1.500   9.112   4.635  0.4402  0.5173  0.1335
  207DOPC  H12X28546   1.503   9.003   4.654 -0.1180  0.9401  3.0419
  207DOPC  H12Y28547   1.579   9.142   4.707  1.2466 -0.2525 -0.4046
  207DOPC  C31328548   1.539   9.148   4.486  0.0548  0.1264  0.6634
  207DOPC  H13X28549   1.492   9.243   4.453 -0.8788 -0.8130 -0.8162
  207DOPC  H13Y28550   1.650   9.153   4.492  0.1647 -1.4082  0.4513
  207DOPC  C31428551   1.498   9.040   4.392  0.1525  0.7744  0.2111
  207DOPC  H14X28552   1.543   8.939   4.407 -1.6364 -0.1507 -0.3863
  207DOPC  H14Y28553   1.388   9.030   4.402 -0.4924  3.0316 -3.1387
  207DOPC  C31528554   1.526   9.069   4.245  0.6227 -0.4991 -0.8001
  207DOPC  H15X28555   1.630   9.100   4.222 -0.2592  1.3243 -2.7325
  207DOPC  H15Y28556   1.466   9.159   4.215  1.0436 -0.6555 -2.1936
  207DOPC  C31628557   1.479   8.961   4.149 -0.1110 -0.5801  0.4441
  207DOPC  H16X28558   1.498   9.001   4.047 -0.5310  0.4355  0.7495
  207DOPC  H16Y28559   1.532   8.866   4.171  2.6378  0.7722  0.1022
  207DOPC  C31728560   1.331   8.937   4.159 -0.3319 -0.3021  0.1329
  207DOPC  H17X28561   1.305   8.907   4.263  0.4627  3.1754  1.4839
  207DOPC  H17Y28562   1.273   9.032   4.149 -0.1587 -0.2788 -0.7473
  207DOPC  C31828563   1.274   8.846   4.053 -0.6050 -0.2362 -0.6759
  207DOPC  H18X28564   1.312   8.868   3.951  0.4242  1.2112 -0.0032
  207DOPC  H18Y28565   1.305   8.744   4.083  0.7726  0.9694  2.3852
  207DOPC  H18Z28566   1.163   8.837   4.050 -0.5586 -0.6156 -2.9569
  208DOPC     N28567   2.518   6.733   6.781 -0.5012 -0.0841 -0.5456
  208DOPC   C1228568   2.504   6.759   6.629  0.5161 -0.1828 -0.5147
  208DOPC  H12A28569   2.402   6.738   6.602  0.5348 -0.4780 -0.3617
  208DOPC  H12B28570   2.571   6.692   6.578  1.5403  1.4873 -1.4541
  208DOPC   C1328571   2.429   6.826   6.851  0.0978 -0.0534  0.4777
  208DOPC  H13A28572   2.411   6.805   6.955 -2.1574 -1.4845 -0.1255
  208DOPC  H13B28573   2.461   6.928   6.837 -0.9964  0.6263  2.5100
  208DOPC  H13C28574   2.333   6.819   6.803  0.4426 -1.7952 -0.0182
  208DOPC   C1428575   2.656   6.745   6.834 -0.1287  0.5895  0.2311
  208DOPC  H14A28576   2.707   6.658   6.796 -2.8992 -0.3662 -1.6633
  208DOPC  H14B28577   2.705   6.828   6.787 -1.4231  1.3878  0.2384
  208DOPC  H14C28578   2.655   6.760   6.941 -2.2855  2.6893  0.0052
  208DOPC   C1528579   2.465   6.590   6.804 -0.4425 -0.1453  0.1856
  208DOPC  H15A28580   2.466   6.582   6.912 -0.2113  0.3677  0.2248
  208DOPC  H15B28581   2.536   6.515   6.773  0.7449  1.7487 -2.0198
  208DOPC  H15C28582   2.367   6.579   6.760 -0.9603 -0.1422  1.3173
  208DOPC   C1128583   2.534   6.907   6.578 -0.7103  0.5351  0.0691
  208DOPC  H11A28584   2.507   6.899   6.471 -0.7168 -1.6897  0.2009
  208DOPC  H11B28585   2.478   6.988   6.629  0.2524  1.6932 -0.6519
  208DOPC     P28586   2.777   6.943   6.478 -0.0220 -0.2043  0.3571
  208DOPC   O1328587   2.758   6.822   6.398  0.5274  0.9879  0.4190
  208DOPC   O1428588   2.907   6.967   6.548  0.7549 -0.0131  0.2190
  208DOPC   O1228589   2.676   6.942   6.592  0.5964 -0.3631 -0.2251
  208DOPC   O1128590   2.751   7.078   6.408 -0.2481  0.5851  0.2719
  208DOPC    C128591   2.858   7.165   6.366  0.5215 -0.4885 -0.7828
  208DOPC    HA28592   2.958   7.117   6.357  0.4259 -0.5160 -1.8109
  208DOPC    HB28593   2.868   7.255   6.430 -0.4706 -0.6120 -0.4339
  208DOPC    C228594   2.819   7.219   6.222 -0.0772 -0.5083 -0.0990
  208DOPC    HS28595   2.718   7.265   6.233 -0.2098 -0.8253  0.0280
  208DOPC   O2128596   2.814   7.102   6.140  0.1879 -0.3005 -0.0074
  208DOPC   C2128597   2.715   7.101   6.048 -0.0979 -0.0570 -0.6066
  208DOPC   O2228598   2.623   7.182   6.040  1.0214  0.6401 -0.1931
  208DOPC   C2228599   2.738   6.978   5.960  0.0555 -0.3137 -0.0209
  208DOPC   H2R28600   2.640   6.927   5.947  0.2975 -0.6098 -0.6905
  208DOPC   H2S28601   2.794   6.909   6.027  0.7032  1.0740  0.9242
  208DOPC    C328602   2.925   7.321   6.181 -0.2122  0.1540 -0.0589
  208DOPC    HX28603   3.023   7.269   6.180  0.7689  1.6906  3.2818
  208DOPC    HY28604   2.935   7.388   6.269 -2.9894 -0.3284  0.7391
  208DOPC   O3128605   2.888   7.388   6.055  0.4458 -0.4402 -0.2020
  208DOPC   C3128606   2.923   7.515   6.036 -1.0106  0.4361  0.0005
  208DOPC   O3228607   2.994   7.574   6.114  0.0090  0.4972 -0.4198
  208DOPC   C3228608   2.868   7.562   5.903 -0.2034 -0.5165 -0.2729
  208DOPC   H2X28609   2.835   7.473   5.845 -0.3125 -1.3989  1.1042
  208DOPC   H2Y28610   2.772   7.615   5.921 -1.8977 -3.3063 -0.4952
  208DOPC   C2328611   2.786   7.014   5.819  0.0242 -0.1602  0.1561
  208DOPC   H3R28612   2.707   7.053   5.753  0.3119  0.1754  0.0049
  208DOPC   H3S28613   2.813   6.920   5.766  0.2592 -0.0071  0.0022
  208DOPC   C2428614   2.910   7.108   5.824  0.4374 -0.1520  0.7236
  208DOPC   H4R28615   2.971   7.112   5.916  0.6283  0.5534  0.5725
  208DOPC   H4S28616   2.875   7.213   5.810  0.3877 -0.4415 -1.8975
  208DOPC   C2528617   2.999   7.079   5.704 -0.0607 -0.0156  0.8676
  208DOPC   H5R28618   2.946   7.091   5.607  1.0938  1.5697  0.4036
  208DOPC   H5S28619   3.030   6.972   5.707  1.9191  0.5167  0.4292
  208DOPC   C2628620   3.121   7.170   5.695 -0.6830 -0.0275  0.6824
  208DOPC   H6R28621   3.196   7.119   5.631  0.3237  0.2499  1.6153
  208DOPC   H6S28622   3.168   7.202   5.790 -0.9682 -0.2750  0.9096
  208DOPC   C2728623   3.090   7.306   5.631 -0.3744 -0.1714  0.1977
  208DOPC   H7R28624   3.029   7.366   5.702  2.7534  0.8673  2.2250
  208DOPC   H7S28625   3.028   7.284   5.542  0.6934  1.1819 -0.9361
  208DOPC   C2828626   3.208   7.386   5.578  0.2506 -0.5577 -0.3767
  208DOPC   H8R28627   3.265   7.405   5.671 -0.4882  0.2093 -0.0609
  208DOPC   H8S28628   3.173   7.482   5.533  1.2040 -0.0673 -0.0988
  208DOPC   C2928629   3.308   7.320   5.488 -0.1313 -0.2458  1.0018
  208DOPC   H9R28630   3.386   7.260   5.536  0.6903  0.9110  1.1584
  208DOPC  C21028631   3.316   7.340   5.350 -0.0924  0.0363  0.2486
  208DOPC  H10R28632   3.392   7.283   5.296  1.2734  1.0100  1.0817
  208DOPC  C21128633   3.207   7.408   5.271 -0.7033  0.3588  0.1261
  208DOPC  H11R28634   3.238   7.493   5.206 -0.0035 -0.1398 -0.2016
  208DOPC  H11S28635   3.112   7.447   5.313 -1.6222  3.0759 -3.8899
  208DOPC  C21228636   3.150   7.298   5.180  0.2819 -0.5416 -0.9796
  208DOPC  H12R28637   3.122   7.210   5.241 -1.8202  0.4419 -0.4468
  208DOPC  H12S28638   3.234   7.259   5.118  1.8606  0.2754  0.5592
  208DOPC  C21328639   3.027   7.341   5.104 -0.4569 -0.1209  0.1069
  208DOPC  H13R28640   2.958   7.372   5.185 -0.2751 -0.5487  0.4242
  208DOPC  H13S28641   2.980   7.253   5.054  1.4388 -1.2976  0.3073
  208DOPC  C21428642   3.055   7.453   4.995 -0.2803 -0.2564 -0.2349
  208DOPC  H14R28643   3.162   7.457   4.964 -0.1027 -0.8426  0.2914
  208DOPC  H14S28644   3.046   7.552   5.045  1.4236 -0.1680 -0.0720
  208DOPC  C21528645   2.956   7.460   4.878 -0.1872 -0.7536  0.2180
  208DOPC  H15R28646   2.853   7.477   4.916 -0.4028  0.1812 -0.7462
  208DOPC  H15S28647   2.947   7.369   4.815  1.2589  1.1307 -2.9558
  208DOPC  C21628648   2.998   7.562   4.775 -0.3323 -0.0445  0.1901
  208DOPC  H16R28649   3.082   7.519   4.717  0.1170 -1.2772  1.6863
  208DOPC  H16S28650   3.030   7.653   4.831  0.8108  1.4841 -2.7419
  208DOPC  C21728651   2.879   7.613   4.685 -0.4457 -0.1748 -0.3379
  208DOPC  H17R28652   2.803   7.664   4.749  0.3479 -1.0929  1.4071
  208DOPC  H17S28653   2.825   7.530   4.636 -0.6510 -1.7967  2.4182
  208DOPC  C21828654   2.928   7.718   4.582  0.3333  0.4594  0.1918
  208DOPC  H18R28655   2.862   7.743   4.496  3.4056  1.4490 -2.0444
  208DOPC  H18S28656   3.022   7.680   4.538 -0.3310 -2.1755  0.9106
  208DOPC  H18T28657   2.964   7.814   4.625 -0.5539  0.9941 -0.2129
  208DOPC   C3328658   2.971   7.652   5.837  0.0513  0.1818  0.4581
  208DOPC   H3X28659   3.054   7.584   5.807  2.4565  2.5222  1.3333
  208DOPC   H3Y28660   2.999   7.738   5.901  0.1092  1.1683 -0.8578
  208DOPC   C3428661   2.920   7.706   5.704  0.5861 -0.4420 -0.2427
  208DOPC   H4X28662   2.821   7.754   5.712  0.8757  0.0864  0.2058
  208DOPC   H4Y28663   2.908   7.617   5.637 -2.1810  0.8794 -1.6727
  208DOPC   C3528664   3.018   7.807   5.648  0.1851 -0.6766 -0.2771
  208DOPC   H5X28665   2.988   7.824   5.543 -1.2956  1.6599  0.4539
  208DOPC   H5Y28666   3.122   7.768   5.645  0.5082  0.1065  0.1713
  208DOPC   C3628667   3.001   7.945   5.713  0.3329 -0.0756  0.3778
  208DOPC   H6X28668   2.897   7.981   5.702  0.1494 -0.6936  0.0074
  208DOPC   H6Y28669   3.033   7.935   5.819  2.3118 -0.0098 -0.1630
  208DOPC   C3728670   3.096   8.045   5.651  0.3942 -0.2207  0.7250
  208DOPC   H7X28671   3.195   7.997   5.638 -0.3879 -1.7164 -0.0770
  208DOPC   H7Y28672   3.058   8.067   5.549  1.6383 -2.3041 -0.2445
  208DOPC   C3828673   3.101   8.176   5.728  0.4767  0.0452  0.3055
  208DOPC   H8X28674   3.134   8.153   5.832 -1.3047 -1.2894  0.6230
  208DOPC   H8Y28675   2.998   8.218   5.728 -0.7368 -2.6772 -0.6734
  208DOPC   C3928676   3.207   8.283   5.680 -0.5373 -0.0285 -0.6250
  208DOPC   H9X28677   3.314   8.263   5.697 -0.3591  2.7513  2.4683
  208DOPC  C31028678   3.175   8.385   5.596  0.2449 -0.1807  0.2866
  208DOPC  H10X28679   3.251   8.464   5.591  0.0115 -0.0091 -0.6232
  208DOPC  C31128680   3.039   8.418   5.528 -0.2929 -0.4818  0.3658
  208DOPC  H11X28681   2.975   8.485   5.589  0.1624  0.5147 -0.2114
  208DOPC  H11Y28682   2.991   8.319   5.523  0.2947 -0.7296 -0.9750
  208DOPC  C31228683   3.061   8.496   5.388 -0.2434  0.1349 -0.4924
  208DOPC  H12X28684   3.119   8.588   5.414 -1.4388  0.6857  0.2964
  208DOPC  H12Y28685   2.959   8.517   5.350  0.3879  2.6000 -1.0203
  208DOPC  C31328686   3.136   8.414   5.289  0.6115  0.3959  0.3044
  208DOPC  H13X28687   3.247   8.407   5.295  0.6851 -0.6249 -1.5191
  208DOPC  H13Y28688   3.105   8.312   5.321 -2.9812  2.1891  3.3394
  208DOPC  C31428689   3.095   8.434   5.141 -0.1280  0.5741  0.0301
  208DOPC  H14X28690   3.000   8.380   5.125 -0.5759  0.7151  1.9802
  208DOPC  H14Y28691   3.079   8.542   5.125 -0.4564  0.4512 -0.4948
  208DOPC  C31528692   3.186   8.368   5.043 -0.6304  0.2055  0.5252
  208DOPC  H15X28693   3.178   8.257   5.039 -0.9527  0.2625 -1.3320
  208DOPC  H15Y28694   3.292   8.379   5.075 -0.3079 -0.5722 -0.2112
  208DOPC  C31628695   3.172   8.430   4.902  0.2988  0.1558 -0.1077
  208DOPC  H16X28696   3.069   8.419   4.861  0.9122  0.3958 -1.7943
  208DOPC  H16Y28697   3.187   8.539   4.915 -0.6876  0.2931 -0.0160
  208DOPC  C31728698   3.274   8.383   4.803 -0.2899  0.2162  0.3146
  208DOPC  H17X28699   3.288   8.456   4.721 -0.2400 -1.1842 -0.9476
  208DOPC  H17Y28700   3.379   8.383   4.841  0.5467  1.5218 -1.8536
  208DOPC  C31828701   3.242   8.252   4.735  0.2884 -0.1719 -0.2790
  208DOPC  H18X28702   3.143   8.253   4.686  0.5245  0.7559 -0.7678
  208DOPC  H18Y28703   3.320   8.235   4.658  0.8258  1.7969 -0.2270
  208DOPC  H18Z28704   3.231   8.171   4.810 -2.2248 -0.0744 -0.4585
  209DOPC     N28705   9.533   2.675   6.251 -0.9346  0.3442  0.4153
  209DOPC   C1228706   9.431   2.562   6.269  0.4739 -0.6150 -0.3384
  209DOPC  H12A28707   9.471   2.478   6.215  1.4180 -0.5208  0.1972
  209DOPC  H12B28708   9.341   2.583   6.212 -0.3013 -1.5502  0.4935
  209DOPC   C1328709   9.655   2.639   6.331 -0.2407  0.0144  0.1610
  209DOPC  H13A28710   9.699   2.545   6.300  0.0160 -0.4668  1.8610
  209DOPC  H13B28711   9.724   2.721   6.322 -0.3283  0.1652  0.7825
  209DOPC  H13C28712   9.636   2.639   6.437 -0.3033  2.4650  0.1999
  209DOPC   C1428713   9.479   2.805   6.300  0.1980 -0.6154  0.0257
  209DOPC  H14A28714   9.397   2.839   6.239  1.2457  0.3530 -0.8902
  209DOPC  H14B28715   9.430   2.782   6.393 -3.2851  1.3546 -1.1179
  209DOPC  H14C28716   9.557   2.879   6.314 -0.1069 -0.5433  1.4952
  209DOPC   C1528717   9.578   2.691   6.116  0.1343 -0.3985  0.2687
  209DOPC  H15A28718   9.655   2.766   6.115  0.0730 -0.3356  0.0020
  209DOPC  H15B28719   9.511   2.730   6.040  1.7975 -1.5402 -1.8748
  209DOPC  H15C28720   9.610   2.597   6.075  2.2715  1.2907 -2.2165
  209DOPC   C1128721   9.389   2.517   6.409 -0.0909  0.5167  0.1802
  209DOPC  H11A28722   9.344   2.416   6.394  0.5564  0.1645  0.5654
  209DOPC  H11B28723   9.474   2.500   6.478 -2.0166 -3.5402  1.9266
  209DOPC     P28724   9.157   2.587   6.504 -0.3140 -0.0907 -0.3456
  209DOPC   O1328725   9.100   2.721   6.531 -0.3406 -0.3665 -0.1836
  209DOPC   O1428726   9.147   2.482   6.606  0.2724 -0.0231 -0.3643
  209DOPC   O1228727   9.308   2.616   6.462 -0.1418 -0.0461  0.2578
  209DOPC   O1128728   9.110   2.529   6.366 -0.3756 -0.2968  0.6664
  209DOPC    C128729   9.058   2.617   6.262 -0.1653  0.3124  0.4989
  209DOPC    HA28730   9.118   2.710   6.248  0.8066 -0.2428  0.8826
  209DOPC    HB28731   8.965   2.663   6.302  1.2311  1.7988  2.2610
  209DOPC    C228732   9.029   2.529   6.132  0.0187  0.1701  0.8257
  209DOPC    HS28733   8.960   2.446   6.157  0.2895 -0.4544 -0.4511
  209DOPC   O2128734   9.155   2.475   6.090  0.0245 -0.1646 -0.2064
  209DOPC   C2128735   9.140   2.365   6.015 -0.9250 -0.0459  0.4205
  209DOPC   O2228736   9.032   2.313   5.985  0.1446 -0.0347  0.0776
  209DOPC   C2228737   9.275   2.301   5.993  0.2433  0.2100 -0.2544
  209DOPC   H2R28738   9.249   2.193   5.981  0.4878  0.2464 -1.1806
  209DOPC   H2S28739   9.345   2.313   6.078 -1.2022 -1.3143  1.2465
  209DOPC    C328740   8.955   2.615   6.025 -0.5464 -0.3321  0.0977
  209DOPC    HX28741   8.965   2.575   5.922  0.9049 -3.3064  1.2807
  209DOPC    HY28742   9.003   2.715   6.024 -1.2500  0.0795  1.8718
  209DOPC   O3128743   8.811   2.615   6.053 -0.4522 -0.1182 -0.2547
  209DOPC   C3128744   8.746   2.718   6.008  0.3127  0.9049 -0.5141
  209DOPC   O3228745   8.787   2.818   5.958  0.3016 -0.3332  0.2548
  209DOPC   C3228746   8.598   2.697   6.034  0.0193 -0.7714  0.0603
  209DOPC   H2X28747   8.582   2.680   6.143  1.4053  0.5622  0.5121
  209DOPC   H2Y28748   8.552   2.795   6.010  1.4561 -0.2882 -0.8027
  209DOPC   C2328749   9.332   2.352   5.856  0.4702  0.7803 -0.2316
  209DOPC   H3R28750   9.242   2.348   5.791 -1.0740  1.4044  1.7352
  209DOPC   H3S28751   9.402   2.280   5.809 -1.0864  0.0693 -1.5753
  209DOPC   C2428752   9.384   2.497   5.870 -0.1058  0.3028 -0.2934
  209DOPC   H4R28753   9.475   2.487   5.933  0.9678 -0.1424 -1.8702
  209DOPC   H4S28754   9.318   2.560   5.935 -0.6250 -1.7973  1.3197
  209DOPC   C2528755   9.425   2.564   5.740  0.4443 -0.1178  0.8290
  209DOPC   H5R28756   9.341   2.556   5.668  2.1197 -2.6026 -1.0304
  209DOPC   H5S28757   9.499   2.495   5.695 -2.4904 -2.3477 -0.9137
  209DOPC   C2628758   9.476   2.711   5.752  0.2259  0.2633  0.0784
  209DOPC   H6R28759   9.566   2.714   5.817 -1.1252  0.1291  2.0189
  209DOPC   H6S28760   9.413   2.782   5.809  2.2940  1.6229  0.7692
  209DOPC   C2728761   9.512   2.781   5.624 -0.6800 -0.2029 -0.1948
  209DOPC   H7R28762   9.431   2.762   5.550 -0.4330  0.7886 -0.7332
  209DOPC   H7S28763   9.602   2.748   5.569 -0.0175 -0.2950  0.9204
  209DOPC   C2828764   9.527   2.935   5.653 -0.2715 -0.0481  0.0402
  209DOPC   H8R28765   9.433   2.984   5.687 -0.3571 -1.8997  2.7302
  209DOPC   H8S28766   9.545   2.985   5.555 -0.9948  1.0613  0.4515
  209DOPC   C2928767   9.644   2.963   5.746  0.1090  0.4761 -0.1365
  209DOPC   H9R28768   9.618   2.981   5.851  1.5187  0.6034  0.2027
  209DOPC  C21028769   9.775   2.975   5.709  0.2321 -0.2868 -0.0042
  209DOPC  H10R28770   9.847   3.003   5.788  1.1795  2.0622 -1.5987
  209DOPC  C21128771   9.823   2.952   5.564 -0.5211 -0.6213 -0.1313
  209DOPC  H11R28772   9.740   2.941   5.491  0.2047 -0.6943 -0.9652
  209DOPC  H11S28773   9.894   2.866   5.557 -0.2069 -0.5415  1.6933
  209DOPC  C21228774   9.900   3.083   5.520 -0.4189  0.2292  0.0467
  209DOPC  H12R28775   9.837   3.174   5.525  1.5401  1.6572 -0.0456
  209DOPC  H12S28776   9.930   3.062   5.415 -2.5227 -0.8588 -0.3929
  209DOPC  C21328777  10.032   3.120   5.587 -0.3348  0.0072 -0.4748
  209DOPC  H13R28778  10.105   3.037   5.596 -1.0725 -0.4700  2.0411
  209DOPC  H13S28779  10.010   3.126   5.696 -0.0474 -3.2348 -0.1455
  209DOPC  C21428780  10.088   3.249   5.529  0.5313 -0.1477  0.4710
  209DOPC  H14R28781  10.002   3.307   5.489 -0.4050 -1.2055  0.9023
  209DOPC  H14S28782  10.157   3.240   5.443  1.1515  1.1972  0.7980
  209DOPC  C21528783  10.164   3.334   5.636 -0.3448 -0.5039  0.8592
  209DOPC  H15R28784  10.257   3.276   5.655 -1.0447 -1.6774  0.7229
  209DOPC  H15S28785  10.100   3.344   5.726  0.8810 -2.8196  2.0730
  209DOPC  C21628786  10.215   3.467   5.572 -0.5834  0.1021 -0.4966
  209DOPC  H16R28787  10.125   3.527   5.546  0.0335  1.3756  0.2016
  209DOPC  H16S28788  10.262   3.440   5.475  0.2889 -0.9488  0.1846
  209DOPC  C21728789  10.314   3.548   5.663  0.2066  0.1713  0.4573
  209DOPC  H17R28790  10.259   3.560   5.759  0.4685 -0.8449  0.7396
  209DOPC  H17S28791  10.320   3.642   5.603 -0.7246 -0.2163 -0.2699
  209DOPC  C21828792  10.445   3.483   5.691 -0.2807 -0.1581 -0.6283
  209DOPC  H18R28793  10.500   3.547   5.764 -1.2668  1.2899 -1.1052
  209DOPC  H18S28794  10.514   3.467   5.605  1.5831 -0.8796  0.9326
  209DOPC  H18T28795  10.420   3.384   5.734  0.8557 -0.1284  0.1621
  209DOPC   C3328796   8.531   2.590   5.943 -0.2734  0.7989 -0.0218
  209DOPC   H3X28797   8.421   2.589   5.952 -0.2246 -1.1258  0.8315
  209DOPC   H3Y28798   8.569   2.495   5.986  0.7237  0.7854 -0.8819
  209DOPC   C3428799   8.556   2.603   5.792  0.8396 -0.4431  1.0012
  209DOPC   H4X28800   8.661   2.631   5.771  1.4399 -2.1701  1.5916
  209DOPC   H4Y28801   8.494   2.690   5.758 -1.0399 -2.4406 -1.0535
  209DOPC   C3528802   8.530   2.476   5.707  0.4817  0.7906 -0.7029
  209DOPC   H5X28803   8.436   2.429   5.743  1.8835 -0.8767  1.0592
  209DOPC   H5Y28804   8.609   2.402   5.733 -0.4167  0.3363  0.8877
  209DOPC   C3628805   8.503   2.493   5.556  0.1279 -0.3494  0.3201
  209DOPC   H6X28806   8.413   2.555   5.538 -1.9713 -2.6364  2.2334
  209DOPC   H6Y28807   8.595   2.545   5.521 -1.2012  1.0465 -1.2464
  209DOPC   C3728808   8.485   2.361   5.480 -1.0885 -0.1830  0.0282
  209DOPC   H7X28809   8.580   2.303   5.480  0.0841  1.6451  0.7419
  209DOPC   H7Y28810   8.405   2.297   5.524 -1.4877 -0.1185 -0.5939
  209DOPC   C3828811   8.442   2.381   5.328  0.3122 -0.4694  0.0148
  209DOPC   H8X28812   8.351   2.444   5.316  1.1492  1.4349  2.7386
  209DOPC   H8Y28813   8.414   2.280   5.291 -0.8294 -1.4849  3.2909
  209DOPC   C3928814   8.547   2.446   5.248 -0.6396  0.2228  0.1461
  209DOPC   H9X28815   8.605   2.519   5.308  1.5944  0.7950 -2.5239
  209DOPC  C31028816   8.586   2.428   5.122  0.0784 -0.8917 -0.5986
  209DOPC  H10X28817   8.657   2.499   5.076 -1.1504  0.2689 -0.7573
  209DOPC  C31128818   8.524   2.343   5.021  0.2067 -0.1929  0.2152
  209DOPC  H11X28819   8.438   2.284   5.059  0.2097 -0.7261 -0.5846
  209DOPC  H11Y28820   8.605   2.276   4.987  0.4214  0.3982 -0.4746
  209DOPC  C31228821   8.477   2.424   4.901  0.4301 -0.1129 -0.0610
  209DOPC  H12X28822   8.569   2.471   4.861  0.4868 -2.2216 -2.6502
  209DOPC  H12Y28823   8.394   2.492   4.932  0.6328  0.3251 -0.4778
  209DOPC  C31328824   8.427   2.337   4.781 -0.1015 -0.2034 -0.2313
  209DOPC  H13X28825   8.468   2.236   4.800 -0.7548 -0.1743  1.6058
  209DOPC  H13Y28826   8.319   2.312   4.782 -0.0869 -0.3270 -1.0992
  209DOPC  C31428827   8.462   2.395   4.641  0.6081  0.3871 -0.6268
  209DOPC  H14X28828   8.434   2.312   4.573 -3.7253 -0.0134  1.3718
  209DOPC  H14Y28829   8.394   2.479   4.617 -0.2473  0.1209  0.7547
  209DOPC  C31528830   8.609   2.424   4.610  1.0405  0.3686 -0.9369
  209DOPC  H15X28831   8.675   2.335   4.617 -1.1318 -1.3074 -0.7871
  209DOPC  H15Y28832   8.649   2.506   4.673  0.2969 -0.2342  0.3558
  209DOPC  C31628833   8.618   2.466   4.463  0.5019  0.0393  0.3652
  209DOPC  H16X28834   8.546   2.408   4.401 -2.7814  1.5723  2.5300
  209DOPC  H16Y28835   8.577   2.569   4.454 -1.9247 -0.7135  1.9215
  209DOPC  C31728836   8.758   2.465   4.394 -0.4769  0.3153  0.5906
  209DOPC  H17X28837   8.797   2.361   4.402 -0.8433  0.0840 -0.5647
  209DOPC  H17Y28838   8.745   2.486   4.286  1.8956  0.5385  0.2988
  209DOPC  C31828839   8.867   2.552   4.448 -0.2988 -0.1804  0.3197
  209DOPC  H18X28840   8.829   2.652   4.480 -0.3728  0.6502 -2.1757
  209DOPC  H18Y28841   8.925   2.507   4.532 -0.1169  2.1167  1.5032
  209DOPC  H18Z28842   8.938   2.579   4.368 -0.7723  0.8185  0.2173
  210DOPC     N28843   5.043   0.274   6.579  0.2173  0.0316  0.0857
  210DOPC   C1228844   4.944   0.301   6.462 -0.6768 -0.3887  0.3290
  210DOPC  H12A28845   4.890   0.393   6.481  1.3806  0.7119  1.1887
  210DOPC  H12B28846   4.867   0.226   6.465 -0.4857 -0.5653  0.8908
  210DOPC   C1328847   4.976   0.277   6.713 -0.3259  0.0007  0.0492
  210DOPC  H13A28848   4.881   0.224   6.711 -1.8470  2.5741 -2.6597
  210DOPC  H13B28849   5.043   0.258   6.796  0.5042  0.7627 -0.4369
  210DOPC  H13C28850   4.943   0.377   6.736  0.4875  0.2436  0.1861
  210DOPC   C1428851   5.151   0.380   6.575 -0.4018 -0.3869  0.0517
  210DOPC  H14A28852   5.218   0.380   6.660 -1.6598  2.8297  1.2081
  210DOPC  H14B28853   5.199   0.368   6.479 -0.8089  0.7004 -0.3111
  210DOPC  H14C28854   5.124   0.485   6.576  0.7034 -0.0880  0.4098
  210DOPC   C1528855   5.109   0.138   6.559  0.5518 -0.8985  0.6063
  210DOPC  H15A28856   5.151   0.133   6.459 -0.7531  1.8564 -0.1566
  210DOPC  H15B28857   5.028   0.067   6.550  0.3558 -0.4411 -2.0367
  210DOPC  H15C28858   5.177   0.112   6.640 -0.3159 -2.0912  0.9767
  210DOPC   C1128859   5.011   0.318   6.317  0.9296 -0.0999 -0.2452
  210DOPC  H11A28860   4.924   0.341   6.251  0.4071 -0.7534  0.1993
  210DOPC  H11B28861   5.071   0.411   6.324 -1.0814  1.2087  0.6060
  210DOPC     P28862   5.222   0.207   6.208 -0.0478  0.1334  0.4460
  210DOPC   O1328863   5.261   0.070   6.164 -0.3393  0.0187  0.2571
  210DOPC   O1428864   5.310   0.270   6.311  0.2440 -0.2066  0.3581
  210DOPC   O1228865   5.083   0.202   6.277  1.0371  0.1095  0.3891
  210DOPC   O1128866   5.202   0.304   6.083 -0.1534  0.8264  0.0795
  210DOPC    C128867   5.099   0.295   5.987 -0.1820 -0.4994 -0.2948
  210DOPC    HA28868   5.083   0.392   5.935 -0.5100  0.3254  1.2501
  210DOPC    HB28869   5.008   0.272   6.048  0.1550  1.9719  1.3080
  210DOPC    C228870   5.111   0.177   5.888  0.0906  0.1133  0.3177
  210DOPC    HS28871   5.099   0.083   5.947 -0.1097 -0.0410  0.0336
  210DOPC   O2128872   5.241   0.174   5.831  0.3579  0.4897 -0.3701
  210DOPC   C2128873   5.263   0.056   5.775  0.6248  0.0030  0.1305
  210DOPC   O2228874   5.188  -0.041   5.761 -0.2378 -0.0748 -0.0563
  210DOPC   C2228875   5.400   0.078   5.711 -0.2334 -0.0986  0.3658
  210DOPC   H2R28876   5.470   0.124   5.783 -1.8083  0.2148  1.7669
  210DOPC   H2S28877   5.376   0.159   5.639  2.0325 -0.3783 -0.7873
  210DOPC    C328878   5.011   0.193   5.772 -0.6369 -0.0909 -0.3799
  210DOPC    HX28879   4.909   0.187   5.814 -0.4444  2.7768  0.7592
  210DOPC    HY28880   5.003   0.117   5.692 -1.7178  0.2925 -0.6551
  210DOPC   O3128881   5.028   0.329   5.716  0.5023  0.1773  0.1413
  210DOPC   C3128882   5.075   0.336   5.593 -0.5048 -0.4715  0.1575
  210DOPC   O3228883   5.109   0.240   5.524  0.4051  0.4611 -0.3442
  210DOPC   C3228884   5.072   0.482   5.543 -0.1290  0.0331 -0.1155
  210DOPC   H2X28885   4.969   0.522   5.556 -1.1756 -2.3543 -0.4621
  210DOPC   H2Y28886   5.149   0.542   5.595  1.0997 -0.6592 -1.0792
  210DOPC   C2328887   5.461  -0.052   5.653 -0.2660 -0.5923  0.9068
  210DOPC   H3R28888   5.388  -0.105   5.588 -0.2167  0.3012  0.1045
  210DOPC   H3S28889   5.469  -0.114   5.745 -2.5100 -1.4446  0.5887
  210DOPC   C2428890   5.582  -0.024   5.570  0.4972 -0.0008  0.2972
  210DOPC   H4R28891   5.641   0.033   5.646 -1.4000  0.4203  1.5131
  210DOPC   H4S28892   5.565   0.048   5.487  0.8313 -1.1211 -0.7852
  210DOPC   C2528893   5.661  -0.146   5.516  0.0247 -0.2611  0.3521
  210DOPC   H5R28894   5.666  -0.215   5.603  0.4805  0.3021  0.7910
  210DOPC   H5S28895   5.763  -0.110   5.490 -0.0681  2.3865  3.0271
  210DOPC   C2628896   5.604  -0.220   5.396  0.4058  0.0435  0.0827
  210DOPC   H6R28897   5.504  -0.264   5.417  0.4224  0.2803  0.6692
  210DOPC   H6S28898   5.666  -0.306   5.363  0.6780  0.1157  0.3971
  210DOPC   C2728899   5.591  -0.135   5.264 -0.4290  0.2427 -0.3219
  210DOPC   H7R28900   5.693  -0.103   5.233  0.2959 -1.2527  0.4398
  210DOPC   H7S28901   5.519  -0.056   5.294  0.6318  0.0473  3.2266
  210DOPC   C2828902   5.528  -0.221   5.144  0.6617  0.3213 -0.0226
  210DOPC   H8R28903   5.443  -0.284   5.177 -0.8804  0.7552 -2.8581
  210DOPC   H8S28904   5.614  -0.280   5.104 -1.6943 -1.4030 -2.9597
  210DOPC   C2928905   5.467  -0.126   5.038 -0.4798  0.7616 -0.0969
  210DOPC   H9R28906   5.442  -0.028   5.081  1.3379  1.2314 -0.0090
  210DOPC  C21028907   5.451  -0.156   4.905 -0.2459  0.0785 -0.4753
  210DOPC  H10R28908   5.412  -0.079   4.837  0.3712  1.4011  0.6218
  210DOPC  C21128909   5.481  -0.298   4.849 -0.2360 -0.6056  0.7437
  210DOPC  H11R28910   5.407  -0.367   4.894 -1.2457 -1.4553 -1.9913
  210DOPC  H11S28911   5.580  -0.335   4.886 -0.6025 -0.6540  1.7060
  210DOPC  C21228912   5.476  -0.312   4.695  0.4084 -0.0447 -0.2646
  210DOPC  H12R28913   5.375  -0.290   4.657  0.9200 -1.0269 -2.3309
  210DOPC  H12S28914   5.499  -0.419   4.671 -0.1543 -0.2641  0.1488
  210DOPC  C21328915   5.570  -0.221   4.621 -0.0986 -0.3714 -0.2013
  210DOPC  H13R28916   5.665  -0.209   4.676 -0.2811  3.4080 -0.4482
  210DOPC  H13S28917   5.522  -0.121   4.618 -3.1359 -1.7297 -1.1762
  210DOPC  C21428918   5.603  -0.268   4.482 -0.3649  0.0140  1.0599
  210DOPC  H14R28919   5.513  -0.278   4.419 -0.4860  0.0584  1.2262
  210DOPC  H14S28920   5.635  -0.374   4.498 -2.8032 -0.9162  0.2089
  210DOPC  C21528921   5.711  -0.190   4.407  0.1617 -0.0890  0.0424
  210DOPC  H15R28922   5.801  -0.169   4.469 -0.6815 -0.2453  1.3391
  210DOPC  H15S28923   5.661  -0.094   4.381 -2.2214 -1.1457  0.5099
  210DOPC  C21628924   5.760  -0.265   4.281  0.3010  0.4765  0.4094
  210DOPC  H16R28925   5.809  -0.357   4.321 -0.2966 -0.5848 -1.2055
  210DOPC  H16S28926   5.836  -0.203   4.229  0.6236 -2.0536 -2.4192
  210DOPC  C21728927   5.655  -0.297   4.174  0.3464  0.1090 -0.5663
  210DOPC  H17R28928   5.575  -0.359   4.221  2.0948 -1.0134  1.1125
  210DOPC  H17S28929   5.711  -0.357   4.099  0.3108 -0.7200  0.0480
  210DOPC  C21828930   5.590  -0.176   4.110  0.3092  0.0379 -0.2139
  210DOPC  H18R28931   5.678  -0.116   4.075  0.9805 -1.9292 -2.0552
  210DOPC  H18S28932   5.541  -0.109   4.184  0.0157  1.6587 -1.7889
  210DOPC  H18T28933   5.531  -0.207   4.022  1.3070 -1.9220 -0.2401
  210DOPC   C3328934   5.096   0.487   5.389 -0.0007  0.1990  0.2024
  210DOPC   H3X28935   5.025   0.422   5.335  0.2227 -0.5707  0.8115
  210DOPC   H3Y28936   5.197   0.451   5.359  0.5723  0.0622  2.1298
  210DOPC   C3428937   5.086   0.631   5.329  0.0048 -0.5108 -0.6871
  210DOPC   H4X28938   5.160   0.708   5.361 -0.3773 -0.0756 -0.8406
  210DOPC   H4Y28939   4.990   0.678   5.358  1.2285  1.5516  0.2242
  210DOPC   C3528940   5.103   0.636   5.174 -0.3067 -0.0620  0.0804
  210DOPC   H5X28941   5.032   0.565   5.125  1.9593 -1.8568 -0.8107
  210DOPC   H5Y28942   5.187   0.566   5.155 -1.5962 -1.5691 -0.3333
  210DOPC   C3628943   5.112   0.776   5.107  0.4454  0.0921 -0.0688
  210DOPC   H6X28944   5.027   0.842   5.136 -0.7072 -0.7196 -1.5016
  210DOPC   H6Y28945   5.204   0.826   5.145  0.1027  1.0524 -0.4730
  210DOPC   C3728946   5.110   0.769   4.951 -0.0832 -0.1662 -0.6862
  210DOPC   H7X28947   5.168   0.852   4.908 -1.5670  0.2870 -1.9194
  210DOPC   H7Y28948   5.165   0.680   4.914 -0.5668 -0.1694 -1.4314
  210DOPC   C3828949   4.967   0.767   4.902  0.0430  0.5439 -0.1032
  210DOPC   H8X28950   4.909   0.688   4.953  0.0977  0.3084 -0.4066
  210DOPC   H8Y28951   4.954   0.743   4.794 -0.9182  1.2081 -0.1509
  210DOPC   C3928952   4.910   0.905   4.927 -0.0524  0.0011  0.0982
  210DOPC   H9X28953   4.860   0.914   5.025 -2.4991 -2.4574 -0.7924
  210DOPC  C31028954   4.903   1.014   4.851 -0.2317  0.1684  0.9564
  210DOPC  H10X28955   4.848   1.102   4.886  0.2176  0.1931  1.6024
  210DOPC  C31128956   4.964   1.029   4.720 -0.0708 -0.3801  0.3452
  210DOPC  H11X28957   5.017   0.938   4.684 -1.2510 -0.9804  0.0916
  210DOPC  H11Y28958   5.044   1.106   4.725  1.0774 -1.3708 -1.6741
  210DOPC  C31228959   4.856   1.048   4.605  0.1318  0.4051 -0.5992
  210DOPC  H12X28960   4.911   1.029   4.511  2.1728 -1.9332  0.9222
  210DOPC  H12Y28961   4.803   1.145   4.616  0.4972  0.4459  1.3172
  210DOPC  C31328962   4.749   0.940   4.616  0.1389  0.5549  0.3308
  210DOPC  H13X28963   4.799   0.842   4.633  0.6403  1.0437  1.8120
  210DOPC  H13Y28964   4.687   0.942   4.708  1.0271 -2.1801  1.1092
  210DOPC  C31428965   4.648   0.928   4.497  0.6286 -0.6862  0.0808
  210DOPC  H14X28966   4.584   0.840   4.519  1.7119 -1.5613 -0.1847
  210DOPC  H14Y28967   4.584   1.017   4.479  0.3021 -0.6338  1.3980
  210DOPC  C31528968   4.709   0.894   4.359  0.1919 -0.2736 -0.6394
  210DOPC  H15X28969   4.776   0.966   4.307 -0.4456 -0.1407 -1.2996
  210DOPC  H15Y28970   4.622   0.901   4.289 -0.1736  1.1191 -0.0782
  210DOPC  C31628971   4.772   0.755   4.359  0.0087 -0.9615 -0.1055
  210DOPC  H16X28972   4.871   0.753   4.409  0.6383 -1.0600 -1.3138
  210DOPC  H16Y28973   4.710   0.674   4.403  0.0520 -0.6881  0.4742
  210DOPC  C31728974   4.794   0.701   4.212 -0.3353 -0.0205  0.1465
  210DOPC  H17X28975   4.689   0.687   4.176 -0.8848  1.0155  1.2572
  210DOPC  H17Y28976   4.849   0.779   4.155 -0.7600 -0.5965 -1.1057
  210DOPC  C31828977   4.869   0.566   4.199 -0.0648 -0.0038  0.1918
  210DOPC  H18X28978   4.973   0.556   4.237 -0.8215 -1.4502  2.0686
  210DOPC  H18Y28979   4.803   0.485   4.237 -0.3823 -0.0914 -0.5343
  210DOPC  H18Z28980   4.877   0.562   4.088 -0.3268  1.1500  0.1158
  211DOPC     N28981  10.412   8.386   5.812  0.2629  0.0489  0.0012
  211DOPC   C1228982  10.417   8.237   5.834  0.4331 -0.0934 -0.4684
  211DOPC  H12A28983  10.388   8.205   5.933 -3.3180  0.1329 -1.3462
  211DOPC  H12B28984  10.516   8.202   5.812 -0.4002 -1.3330 -2.5928
  211DOPC   C1328985  10.505   8.452   5.912  0.2708  0.2852 -0.6611
  211DOPC  H13A28986  10.486   8.424   6.015 -0.4054  0.6026 -0.6898
  211DOPC  H13B28987  10.607   8.431   5.886  0.5758  0.1965  0.5417
  211DOPC  H13C28988  10.496   8.560   5.911  2.0978  0.4636 -0.6510
  211DOPC   C1428989  10.277   8.437   5.846 -0.2472 -0.2391  0.6180
  211DOPC  H14A28990  10.204   8.378   5.793 -0.5579  1.0197 -0.4116
  211DOPC  H14B28991  10.251   8.430   5.951  2.0190 -0.8530  1.1811
  211DOPC  H14C28992  10.274   8.541   5.817  1.5472 -0.1987  0.4795
  211DOPC   C1528993  10.451   8.430   5.673 -0.3196 -0.1330 -0.2359
  211DOPC  H15A28994  10.385   8.377   5.606 -0.8793  0.2625 -0.0117
  211DOPC  H15B28995  10.556   8.408   5.660  0.0318 -0.8755  3.0488
  211DOPC  H15C28996  10.424   8.534   5.659 -3.6564 -0.4776  2.4222
  211DOPC   C1128997  10.323   8.155   5.749  0.4395  0.3850  0.2558
  211DOPC  H11A28998  10.339   8.174   5.641 -2.2756  1.2805 -0.0616
  211DOPC  H11B28999  10.351   8.049   5.767 -1.0056 -0.7917 -3.4722
  211DOPC     P29000  10.094   8.116   5.875  0.1418  0.0434 -0.1489
  211DOPC   O1329001  10.024   8.225   5.943  0.4747  0.1167  0.9451
  211DOPC   O1429002  10.177   8.026   5.961  0.6660  0.1775 -0.1979
  211DOPC   O1229003  10.186   8.185   5.769  0.4463  0.0839 -0.0263
  211DOPC   O1129004   9.995   8.024   5.777 -0.0775 -0.9296  0.9869
  211DOPC    C129005  10.040   7.939   5.677  1.0656  0.1679  1.2937
  211DOPC    HA29006  10.007   7.833   5.692  2.1225 -0.0616  2.1951
  211DOPC    HB29007  10.151   7.930   5.684  1.2519  1.8832  0.8358
  211DOPC    C229008  10.014   7.990   5.536 -0.1449 -0.5049  0.7315
  211DOPC    HS29009  10.067   8.086   5.524  1.2350 -0.9008  3.1190
  211DOPC   O2129010   9.873   8.000   5.514  0.0345  0.0657 -0.5226
  211DOPC   C2129011   9.810   8.113   5.530  0.6628  0.0634  0.5746
  211DOPC   O2229012   9.849   8.216   5.586 -0.0836  0.1532  0.2945
  211DOPC   C2229013   9.663   8.106   5.466 -0.3564 -0.2041 -0.0377
  211DOPC   H2R29014   9.632   8.000   5.476  0.3415 -0.3169  1.1093
  211DOPC   H2S29015   9.673   8.136   5.359  1.6136 -0.0530  0.1609
  211DOPC    C329016  10.068   7.899   5.420 -0.0105 -0.5455  0.2804
  211DOPC    HX29017   9.993   7.817   5.421  1.0229 -1.5378 -0.6429
  211DOPC    HY29018  10.169   7.866   5.453  1.3460  2.4664 -0.5163
  211DOPC   O3129019  10.069   7.961   5.291 -0.2533 -0.2750  0.1941
  211DOPC   C3129020  10.167   8.053   5.278 -0.2913  0.1337  0.1899
  211DOPC   O3229021  10.250   8.082   5.364 -0.5626 -0.6539 -0.0368
  211DOPC   C3229022  10.156   8.111   5.137 -0.4730 -0.4685 -0.0359
  211DOPC   H2X29023  10.233   8.192   5.135 -0.9334  0.0194  1.2400
  211DOPC   H2Y29024  10.178   8.023   5.073 -1.5750 -0.6466 -0.1954
  211DOPC   C2329025   9.538   8.182   5.534 -0.7408  0.6632  0.7703
  211DOPC   H3R29026   9.554   8.291   5.550 -0.5000  0.7103  0.2600
  211DOPC   H3S29027   9.533   8.142   5.637 -1.3831  1.4227  1.0372
  211DOPC   C2429028   9.412   8.145   5.458  0.2203 -0.1688 -0.6534
  211DOPC   H4R29029   9.320   8.167   5.517 -1.2083  0.3282 -2.9417
  211DOPC   H4S29030   9.415   8.036   5.440  0.3316 -0.1484 -0.7588
  211DOPC   C2529031   9.394   8.222   5.326  0.0961 -0.1138 -0.0660
  211DOPC   H5R29032   9.469   8.190   5.251  0.7884 -0.6371  0.8289
  211DOPC   H5S29033   9.404   8.331   5.343  1.2986 -0.2233  0.0023
  211DOPC   C2629034   9.256   8.188   5.266  0.2573 -0.3589  0.1928
  211DOPC   H6R29035   9.226   8.271   5.199  0.0314 -0.2438  0.4353
  211DOPC   H6S29036   9.184   8.202   5.349  0.3824  0.5333  0.1692
  211DOPC   C2729037   9.241   8.048   5.199  0.5044 -0.2181 -0.6889
  211DOPC   H7R29038   9.280   7.980   5.278  2.2763 -0.9862 -2.1756
  211DOPC   H7S29039   9.310   8.033   5.114 -0.5357 -0.8496 -1.4352
  211DOPC   C2829040   9.099   8.006   5.159 -0.1575  0.0522 -0.3749
  211DOPC   H8R29041   9.103   7.914   5.095 -0.4939  0.1464 -0.5326
  211DOPC   H8S29042   9.050   8.089   5.104 -0.4082  0.0870 -0.0945
  211DOPC   C2929043   9.014   7.956   5.273  0.4572 -0.6916 -0.1486
  211DOPC   H9R29044   9.053   7.977   5.374 -1.7743  1.2614  0.3748
  211DOPC  C21029045   8.892   7.911   5.257  0.3393  0.0616  1.0389
  211DOPC  H10R29046   8.836   7.889   5.349 -0.7840  2.3169  0.9722
  211DOPC  C21129047   8.804   7.897   5.131 -0.6609  0.1891  0.0022
  211DOPC  H11R29048   8.804   7.788   5.111 -1.0249  0.0168  0.8734
  211DOPC  H11S29049   8.855   7.937   5.041 -0.0540 -1.5084 -0.4403
  211DOPC  C21229050   8.651   7.939   5.140 -0.7043  0.1743 -0.4075
  211DOPC  H12R29051   8.633   8.048   5.154 -0.4460  0.1070  0.4895
  211DOPC  H12S29052   8.602   7.901   5.232 -0.8629  1.4838  0.0830
  211DOPC  C21329053   8.563   7.892   5.021  0.0933  0.1852 -0.0040
  211DOPC  H13R29054   8.472   7.955   5.028  0.2662  0.4949 -0.5060
  211DOPC  H13S29055   8.539   7.784   5.033 -1.4135  0.5207  0.1166
  211DOPC  C21429056   8.631   7.925   4.889 -0.0776  0.4124 -1.1649
  211DOPC  H14R29057   8.669   8.029   4.891 -0.6333  0.6196 -1.2382
  211DOPC  H14S29058   8.536   7.932   4.832 -0.9234  0.6804  0.2311
  211DOPC  C21529059   8.708   7.807   4.826  0.5802  0.0620 -0.1852
  211DOPC  H15R29060   8.642   7.728   4.786  2.6932 -2.4893  1.0045
  211DOPC  H15S29061   8.748   7.763   4.920 -0.8574  2.4731  1.6915
  211DOPC  C21629062   8.819   7.840   4.738 -0.3240  0.5546  0.1347
  211DOPC  H16R29063   8.887   7.914   4.786  1.3762 -1.0158  0.2373
  211DOPC  H16S29064   8.784   7.885   4.643  0.3904 -1.3083 -1.0625
  211DOPC  C21729065   8.910   7.725   4.715 -0.0863  0.3116 -0.2048
  211DOPC  H17R29066   8.853   7.637   4.678 -1.0408  0.1222  1.6273
  211DOPC  H17S29067   8.954   7.696   4.813 -0.8940  2.9027  1.0075
  211DOPC  C21829068   9.027   7.759   4.620 -0.6160  0.1848 -0.0596
  211DOPC  H18R29069   9.008   7.841   4.547  2.2447  0.0666 -1.0838
  211DOPC  H18S29070   9.066   7.673   4.562  1.0589  0.2178  0.9606
  211DOPC  H18T29071   9.109   7.810   4.675 -1.3510  0.7815  0.5019
  211DOPC   C3329072  10.016   8.158   5.112 -0.9367 -0.2095  0.0268
  211DOPC   H3X29073   9.942   8.081   5.143 -0.6275 -0.3550  0.4193
  211DOPC   H3Y29074  10.007   8.167   5.001 -1.7371 -0.0588  0.0998
  211DOPC   C3429075  10.000   8.291   5.173  0.3452 -0.7888 -0.0288
  211DOPC   H4X29076  10.061   8.373   5.130  0.2673 -1.5889 -1.7582
  211DOPC   H4Y29077  10.035   8.280   5.277 -0.1746  2.0988  0.5273
  211DOPC   C3529078   9.847   8.327   5.176 -0.6052 -0.0285 -0.5078
  211DOPC   H5X29079   9.790   8.234   5.197 -0.6557 -0.0142 -0.5852
  211DOPC   H5Y29080   9.811   8.370   5.080 -1.5541 -0.1640 -0.2264
  211DOPC   C3629081   9.821   8.423   5.291 -0.0986  0.6537 -0.1837
  211DOPC   H6X29082   9.714   8.427   5.318 -0.3006 -0.5296 -0.7142
  211DOPC   H6Y29083   9.873   8.373   5.377 -0.4312 -2.8188 -1.8147
  211DOPC   C3729084   9.892   8.558   5.271 -0.4130 -0.0821  0.2100
  211DOPC   H7X29085   9.999   8.533   5.284 -0.3613 -1.3383 -2.1062
  211DOPC   H7Y29086   9.874   8.592   5.167  0.9127 -0.1544 -0.0670
  211DOPC   C3829087   9.863   8.673   5.370 -0.8852  0.3075  0.0420
  211DOPC   H8X29088   9.944   8.747   5.358 -0.5233  0.2703  1.9467
  211DOPC   H8Y29089   9.868   8.632   5.473  2.2136  0.3090  0.0030
  211DOPC   C3929090   9.722   8.734   5.355  0.0337  0.0403 -0.3488
  211DOPC   H9X29091   9.646   8.655   5.357 -0.3268  0.4006  0.3002
  211DOPC  C31029092   9.684   8.863   5.326  0.1916  0.1531 -0.0620
  211DOPC  H10X29093   9.577   8.888   5.333  0.1961 -0.0950  1.3894
  211DOPC  C31129094   9.783   8.976   5.318  0.3634  0.4431 -0.1051
  211DOPC  H11X29095   9.889   8.947   5.339 -0.1855 -0.4481  1.7333
  211DOPC  H11Y29096   9.745   9.051   5.391 -1.4114 -1.0991  0.6408
  211DOPC  C31229097   9.784   9.028   5.173  0.4237 -0.0085 -0.0800
  211DOPC  H12X29098   9.868   9.100   5.169  1.3574 -0.5857  4.4299
  211DOPC  H12Y29099   9.689   9.083   5.161 -0.7648 -1.9427  0.0751
  211DOPC  C31329100   9.803   8.924   5.059 -0.4479  0.5585  0.3278
  211DOPC  H13X29101   9.902   8.874   5.071  0.8479  2.0845 -2.7782
  211DOPC  H13Y29102   9.726   8.844   5.056  0.0104  0.1305 -1.0732
  211DOPC  C31429103   9.799   9.001   4.921  0.5971 -0.7110 -0.4700
  211DOPC  H14X29104   9.702   9.055   4.913  0.2899 -1.3736 -1.2805
  211DOPC  H14Y29105   9.880   9.076   4.916 -1.6817  1.9784  0.1681
  211DOPC  C31529106   9.796   8.912   4.802  1.0796 -0.3256 -0.0453
  211DOPC  H15X29107   9.706   8.848   4.818  1.0296 -0.3110 -0.2758
  211DOPC  H15Y29108   9.888   8.850   4.803  1.4053  0.1367  1.2640
  211DOPC  C31629109   9.783   8.989   4.663 -0.2779 -0.3643  0.7291
  211DOPC  H16X29110   9.685   9.042   4.665  0.0798  0.2886  1.5713
  211DOPC  H16Y29111   9.872   9.055   4.650 -0.5466 -0.2258 -0.5531
  211DOPC  C31729112   9.793   8.902   4.535 -0.5383  0.8865 -1.3008
  211DOPC  H17X29113   9.895   8.859   4.539 -0.7257  0.4686  2.2701
  211DOPC  H17Y29114   9.724   8.815   4.542 -1.7520  1.9256  0.2384
  211DOPC  C31829115   9.788   8.972   4.406 -0.2618 -0.2491 -0.0724
  211DOPC  H18X29116   9.693   9.026   4.387  0.2234  1.0621  1.1088
  211DOPC  H18Y29117   9.881   9.032   4.401  1.8128 -3.1610  0.7840
  211DOPC  H18Z29118   9.808   8.895   4.329  0.7282 -2.1511  1.9573
  212DOPC     N29119  12.121   6.073   5.839  0.6678 -0.1899 -0.2881
  212DOPC   C1229120  12.219   6.187   5.822  0.0000  0.5199  0.2121
  212DOPC  H12A29121  12.269   6.183   5.726 -0.9525 -2.8337 -0.2584
  212DOPC  H12B29122  12.291   6.177   5.902 -0.9065 -0.8366  0.8851
  212DOPC   C1329123  12.018   6.071   5.731  0.4011 -0.5895 -0.0757
  212DOPC  H13A29124  12.048   6.054   5.629  0.5194 -0.2169 -0.1069
  212DOPC  H13B29125  11.939   6.000   5.749 -0.4203  0.6678  1.5870
  212DOPC  H13C29126  11.966   6.165   5.742  0.8197 -0.4123  0.4616
  212DOPC   C1429127  12.042   6.070   5.974 -0.1712  0.1889  0.3589
  212DOPC  H14A29128  11.980   5.982   5.985  1.8896 -1.0825  2.8798
  212DOPC  H14B29129  12.102   6.061   6.064 -0.4475  0.2783  0.5560
  212DOPC  H14C29130  11.970   6.149   5.988 -0.6119 -0.0866 -0.3127
  212DOPC   C1529131  12.198   5.950   5.833 -0.3274 -0.4281  0.1229
  212DOPC  H15A29132  12.140   5.863   5.859  2.6198 -2.3932  0.5924
  212DOPC  H15B29133  12.275   5.956   5.908  1.0777  0.5606 -1.3207
  212DOPC  H15C29134  12.245   5.930   5.737  2.1078 -1.2565  1.4038
  212DOPC   C1129135  12.174   6.331   5.830  0.3645  0.1140  0.0324
  212DOPC  H11A29136  12.111   6.352   5.741  1.9196  1.1643 -0.8773
  212DOPC  H11B29137  12.115   6.360   5.919  1.1472  0.0864  0.5698
  212DOPC     P29138  12.386   6.411   5.691  0.5128  0.3215  0.0455
  212DOPC   O1329139  12.489   6.312   5.714 -0.6929  0.1449  0.0217
  212DOPC   O1429140  12.425   6.553   5.658 -0.4666  0.1366  0.1310
  212DOPC   O1229141  12.289   6.412   5.819 -0.3817  0.3962 -0.2447
  212DOPC   O1129142  12.282   6.363   5.573 -0.2806  0.2687  0.1906
  212DOPC    C129143  12.330   6.262   5.487  0.1973  0.1701  0.0132
  212DOPC    HA29144  12.240   6.212   5.444 -0.4126  2.1806 -1.2025
  212DOPC    HB29145  12.387   6.187   5.546 -0.3719  1.7417  2.7137
  212DOPC    C229146  12.425   6.320   5.378  0.3511 -0.0110  0.4765
  212DOPC    HS29147  12.523   6.336   5.428  0.4909  2.2928 -0.3656
  212DOPC   O2129148  12.384   6.453   5.326  0.3272  0.0670  0.1332
  212DOPC   C2129149  12.477   6.510   5.252 -0.3484  0.3425 -0.0179
  212DOPC   O2229150  12.582   6.456   5.221 -0.4580  0.4058 -0.0042
  212DOPC   C2229151  12.426   6.647   5.215 -0.1802  0.3320  0.2581
  212DOPC   H2R29152  12.474   6.722   5.281  1.0084  1.7112 -2.0530
  212DOPC   H2S29153  12.315   6.651   5.220 -0.2452 -1.8431  1.9944
  212DOPC    C329154  12.445   6.211   5.275 -0.3934 -0.6969  0.2025
  212DOPC    HX29155  12.492   6.123   5.324 -0.9910 -1.2237 -0.1536
  212DOPC    HY29156  12.517   6.241   5.196  1.4560 -0.2109  1.9693
  212DOPC   O3129157  12.313   6.168   5.226 -0.6304  0.5307 -0.3712
  212DOPC   C3129158  12.340   6.075   5.124  0.1929  0.4304 -0.1236
  212DOPC   O3229159  12.449   6.036   5.088 -0.1399 -0.4813 -1.2002
  212DOPC   C3229160  12.213   6.029   5.050 -0.0090  0.1542 -0.3089
  212DOPC   H2X29161  12.189   5.930   5.095 -0.3122 -0.9115 -2.6584
  212DOPC   H2Y29162  12.129   6.099   5.073 -0.2215 -0.3850  0.6161
  212DOPC   C2329163  12.478   6.697   5.078 -0.0498  0.7398 -0.1097
  212DOPC   H3R29164  12.582   6.664   5.062 -0.6429 -1.4923  0.2542
  212DOPC   H3S29165  12.470   6.808   5.081 -1.6931  0.6333  0.7984
  212DOPC   C2429166  12.393   6.638   4.963  0.3773 -0.3135 -0.1740
  212DOPC   H4R29167  12.292   6.666   5.001  1.1265  1.1355  0.8158
  212DOPC   H4S29168  12.382   6.527   4.963 -0.9760 -0.2042  0.2289
  212DOPC   C2529169  12.425   6.699   4.828 -0.7538 -0.2702  1.0961
  212DOPC   H5R29170  12.531   6.680   4.800 -0.0425  1.4640  2.3793
  212DOPC   H5S29171  12.403   6.808   4.824 -1.9818 -0.5035  1.2214
  212DOPC   C2629172  12.343   6.641   4.705 -0.2156  0.3417 -0.5630
  212DOPC   H6R29173  12.242   6.600   4.728 -0.3347  0.3473 -1.0752
  212DOPC   H6S29174  12.404   6.558   4.664 -0.0175  0.7263 -1.0502
  212DOPC   C2729175  12.332   6.748   4.592  0.0254  0.2440 -0.6682
  212DOPC   H7R29176  12.438   6.775   4.573  0.1332 -0.2662 -0.7928
  212DOPC   H7S29177  12.302   6.850   4.626  0.5624  0.7441 -1.6703
  212DOPC   C2829178  12.243   6.715   4.477  0.2007 -0.2976 -0.0863
  212DOPC   H8R29179  12.142   6.741   4.518 -0.3759 -3.1456  0.5279
  212DOPC   H8S29180  12.247   6.606   4.456  2.0380 -0.1433 -0.6757
  212DOPC   C2929181  12.277   6.797   4.350  0.7985 -0.2880 -0.4072
  212DOPC   H9R29182  12.276   6.906   4.366 -1.5463 -0.3710  0.3583
  212DOPC  C21029183  12.306   6.748   4.232 -0.9193  1.0238  0.3930
  212DOPC  H10R29184  12.333   6.815   4.150 -1.0133 -1.0141 -1.3991
  212DOPC  C21129185  12.319   6.604   4.185 -0.6779 -0.1502  0.0055
  212DOPC  H11R29186  12.361   6.535   4.261  1.8630 -0.3888 -1.4918
  212DOPC  H11S29187  12.382   6.600   4.093  0.6174 -1.5903  0.8873
  212DOPC  C21229188  12.185   6.543   4.140 -0.5138  0.0663  0.4014
  212DOPC  H12R29189  12.102   6.546   4.213  0.4645 -0.4828  1.5793
  212DOPC  H12S29190  12.206   6.437   4.113  1.6002 -0.0570  2.2562
  212DOPC  C21329191  12.125   6.619   4.016  0.6672 -0.4401 -0.4597
  212DOPC  H13R29192  12.190   6.699   3.974 -0.8810  1.2877  0.2982
  212DOPC  H13S29193  12.041   6.678   4.059  0.8722  0.6142 -1.4581
  212DOPC  C21429194  12.085   6.522   3.905  0.0581 -0.2837  0.0087
  212DOPC  H14R29195  12.028   6.439   3.951  0.3756  1.0736  3.0959
  212DOPC  H14S29196  12.180   6.469   3.887  0.1048 -0.8844  1.7947
  212DOPC  C21529197  12.017   6.589   3.785  0.1398 -0.2818  0.7858
  212DOPC  H15R29198  12.082   6.668   3.743  0.2614 -0.2537  1.0239
  212DOPC  H15S29199  11.934   6.647   3.831 -1.9658 -1.1647 -1.6397
  212DOPC  C21629200  11.978   6.489   3.677 -0.7842 -0.1538  0.5863
  212DOPC  H16R29201  12.072   6.443   3.640 -0.2753 -1.1171  2.9402
  212DOPC  H16S29202  11.938   6.551   3.593 -0.5292 -0.0031  0.5731
  212DOPC  C21729203  11.878   6.386   3.721 -0.3064 -0.7297  0.3510
  212DOPC  H17R29204  11.778   6.434   3.736 -0.6341 -1.7579  1.6127
  212DOPC  H17S29205  11.909   6.336   3.815 -1.0959  0.5592  1.3536
  212DOPC  C21829206  11.840   6.286   3.612 -0.4470  0.1660 -0.3491
  212DOPC  H18R29207  11.843   6.329   3.510  0.6489  1.4306  0.1795
  212DOPC  H18S29208  11.737   6.246   3.623 -0.1335 -0.7620 -0.7471
  212DOPC  H18T29209  11.911   6.202   3.626 -0.4899 -0.2067 -2.1862
  212DOPC   C3329210  12.220   6.009   4.901  0.4455 -0.2499 -0.0836
  212DOPC   H3X29211  12.169   5.912   4.882 -0.6036  0.6882 -2.4745
  212DOPC   H3Y29212  12.324   5.992   4.867  0.2112 -0.8905 -0.4988
  212DOPC   C3429213  12.168   6.132   4.823 -0.3981  0.3317  0.4124
  212DOPC   H4X29214  12.214   6.218   4.876 -0.3317  0.2874  0.4275
  212DOPC   H4Y29215  12.057   6.138   4.827 -0.4683  0.0321 -0.7239
  212DOPC   C3529216  12.207   6.136   4.674  0.3047 -0.4009  0.2383
  212DOPC   H5X29217  12.173   6.052   4.610 -1.3663  0.1444  0.3581
  212DOPC   H5Y29218  12.317   6.148   4.663  0.1309  0.0515 -1.3329
  212DOPC   C3629219  12.153   6.272   4.617 -0.3608  0.2641 -0.6834
  212DOPC   H6X29220  12.057   6.297   4.667 -1.4976 -1.6834 -1.7757
  212DOPC   H6Y29221  12.227   6.354   4.627  1.3842 -1.2387 -0.7896
  212DOPC   C3729222  12.113   6.255   4.468 -0.7436 -0.4061  0.8913
  212DOPC   H7X29223  12.099   6.360   4.432  0.5244 -0.2571  0.7700
  212DOPC   H7Y29224  12.206   6.216   4.423 -0.2873  2.1883 -0.6474
  212DOPC   C3829225  11.995   6.155   4.443 -0.0959 -0.0072  0.1284
  212DOPC   H8X29226  11.906   6.198   4.494  0.0758  0.8619 -0.2986
  212DOPC   H8Y29227  12.009   6.055   4.490  2.4500  1.0250  1.8047
  212DOPC   C3929228  11.970   6.159   4.294 -0.5995 -0.2212  0.1196
  212DOPC   H9X29229  11.963   6.257   4.245  0.3916  0.3157  0.9929
  212DOPC  C31029230  11.946   6.048   4.223  0.0677 -0.5689 -0.3945
  212DOPC  H10X29231  11.917   6.065   4.118  0.8265  0.3034 -0.4801
  212DOPC  C31129232  11.947   5.903   4.260  0.4171 -0.0837  0.4202
  212DOPC  H11X29233  12.007   5.888   4.353  2.3303  0.8906 -0.5965
  212DOPC  H11Y29234  12.000   5.848   4.179  0.9146  0.0958  0.6169
  212DOPC  C31229235  11.805   5.833   4.250 -0.4560 -0.5108  0.1139
  212DOPC  H12X29236  11.724   5.886   4.306 -0.7714 -0.7495 -0.1086
  212DOPC  H12Y29237  11.821   5.733   4.296 -0.4842 -0.0393  1.1952
  212DOPC  C31329238  11.761   5.797   4.099 -0.0385 -0.0364 -0.0311
  212DOPC  H13X29239  11.737   5.885   4.036  2.5461 -0.1674 -1.3149
  212DOPC  H13Y29240  11.846   5.757   4.039  1.1516  2.8362 -0.4339
  212DOPC  C31429241  11.635   5.696   4.080  0.1808 -0.3919 -0.1409
  212DOPC  H14X29242  11.667   5.606   4.137 -0.4075 -0.5432 -0.0447
  212DOPC  H14Y29243  11.549   5.744   4.131  0.6328  0.4540 -0.1575
  212DOPC  C31529244  11.612   5.668   3.935 -0.2771 -0.2159  0.0325
  212DOPC  H15X29245  11.712   5.647   3.892  0.1237 -0.1825  0.9298
  212DOPC  H15Y29246  11.587   5.761   3.880  0.6633  0.7964  1.2508
  212DOPC  C31629247  11.504   5.561   3.906  0.1099  0.2892 -0.9147
  212DOPC  H16X29248  11.531   5.456   3.930 -0.6972  0.5054  1.1163
  212DOPC  H16Y29249  11.418   5.587   3.972 -0.6678 -1.9299 -0.9734
  212DOPC  C31729250  11.476   5.549   3.762 -0.3615  0.1658  0.2112
  212DOPC  H17X29251  11.575   5.568   3.716 -0.3054  1.3447  0.7660
  212DOPC  H17Y29252  11.439   5.446   3.743  0.2049  0.1286 -0.7201
  212DOPC  C31829253  11.383   5.660   3.712  0.0212  0.4334  0.6569
  212DOPC  H18X29254  11.371   5.738   3.790 -3.2094  0.1107  0.6116
  212DOPC  H18Y29255  11.424   5.711   3.623 -1.8134  2.1224  0.7324
  212DOPC  H18Z29256  11.282   5.618   3.692 -0.2391  2.1842 -2.1274
  213DOPC     N29257  10.249  10.506   6.110 -0.3856 -0.2997  0.0610
  213DOPC   C1229258  10.339  10.423   6.202  0.6226 -1.3652  1.0414
  213DOPC  H12A29259  10.272  10.387   6.278  1.1494 -1.1674  1.6020
  213DOPC  H12B29260  10.397  10.498   6.254 -0.1024  0.7786 -1.0439
  213DOPC   C1329261  10.166  10.420   6.024  0.0776  0.2945 -0.3343
  213DOPC  H13A29262  10.074  10.387   6.070  0.3218 -0.4158 -0.3390
  213DOPC  H13B29263  10.146  10.458   5.925 -1.1689 -0.5000 -0.4211
  213DOPC  H13C29264  10.219  10.330   5.996  2.2573  1.5409 -0.4436
  213DOPC   C1429265  10.336  10.574   6.012 -0.2857 -0.1908  0.6017
  213DOPC  H14A29266  10.278  10.617   5.932 -3.2059  2.7471  3.9247
  213DOPC  H14B29267  10.405  10.640   6.062  1.3065 -0.5420 -1.0262
  213DOPC  H14C29268  10.404  10.504   5.967 -0.4334  0.0751 -0.0495
  213DOPC   C1529269  10.159  10.591   6.193 -0.0527 -0.1032  0.2498
  213DOPC  H15A29270  10.104  10.535   6.268 -1.1279 -0.5515 -0.8513
  213DOPC  H15B29271  10.087  10.648   6.137  0.0647 -1.0565 -0.9245
  213DOPC  H15C29272  10.206  10.663   6.258 -1.9604  0.7617  0.7185
  213DOPC   C1129273  10.437  10.320   6.134  0.1545  0.4140 -0.5155
  213DOPC  H11A29274  10.515  10.376   6.078 -0.4095  0.7316 -0.9977
  213DOPC  H11B29275  10.476  10.272   6.227 -1.5674 -0.9108 -0.4344
  213DOPC     P29276  10.311  10.096   6.108 -0.1491 -0.2182 -0.0687
  213DOPC   O1329277  10.194  10.129   6.186  0.0121 -0.3393 -0.1935
  213DOPC   O1429278  10.411  10.017   6.183 -0.0945  0.5747  0.3139
  213DOPC   O1229279  10.373  10.227   6.048 -0.3630  0.4015 -0.7079
  213DOPC   O1129280  10.261  10.009   5.985  0.1436 -0.8762  0.6514
  213DOPC    C129281  10.355   9.957   5.892 -0.2930  0.6192  0.4821
  213DOPC    HA29282  10.360   9.846   5.897  0.7039  0.7076  2.0109
  213DOPC    HB29283  10.461   9.989   5.903  0.2291 -0.8100 -0.1562
  213DOPC    C229284  10.330   9.993   5.740  0.5314  0.0700  0.0565
  213DOPC    HS29285  10.424   9.963   5.689  0.5935 -1.1054  0.8265
  213DOPC   O2129286  10.286  10.131   5.726 -0.0554 -0.1655  0.5070
  213DOPC   C2129287  10.398  10.214   5.715  0.4452 -0.6197 -0.5459
  213DOPC   O2229288  10.511  10.176   5.709 -0.2517 -0.3545  0.0493
  213DOPC   C2229289  10.349  10.355   5.690 -0.4875 -0.2425  0.0792
  213DOPC   H2R29290  10.402  10.422   5.761  0.4238 -1.2122  0.3387
  213DOPC   H2S29291  10.238  10.358   5.695 -0.4354  0.6034  1.3018
  213DOPC    C329292  10.220   9.890   5.683 -0.1499 -0.0093 -0.4198
  213DOPC    HX29293  10.128   9.874   5.743 -0.5425 -0.7601 -1.2056
  213DOPC    HY29294  10.268   9.790   5.688 -0.6873 -0.2450  0.0590
  213DOPC   O3129295  10.193   9.902   5.536 -0.3467 -0.1753  0.1085
  213DOPC   C3129296  10.111  10.010   5.513 -0.1348  0.4653  0.8500
  213DOPC   O3229297  10.053  10.071   5.595  0.3431 -0.4071 -0.1405
  213DOPC   C3229298  10.100  10.037   5.362  0.8169  0.7113  0.4984
  213DOPC   H2X29299  10.076  10.145   5.352 -1.2074  0.2470 -0.3268
  213DOPC   H2Y29300  10.197  10.014   5.313  0.9779 -0.1555  1.1936
  213DOPC   C2329301  10.389  10.407   5.549  0.2828  0.2392 -0.0636
  213DOPC   H3R29302  10.499  10.420   5.554  0.7296 -2.3635 -1.5016
  213DOPC   H3S29303  10.332  10.502   5.537  0.2196  0.3300  0.8317
  213DOPC   C2429304  10.365  10.298   5.439 -0.2276 -0.4744  0.3475
  213DOPC   H4R29305  10.259  10.265   5.449 -0.8197  1.2021 -0.0666
  213DOPC   H4S29306  10.423  10.204   5.451  1.3570  0.2372 -1.2751
  213DOPC   C2529307  10.363  10.362   5.300  0.5498  0.4508 -0.5889
  213DOPC   H5R29308  10.461  10.414   5.293  0.9369 -0.3455 -1.2083
  213DOPC   H5S29309  10.292  10.447   5.297  2.3474  2.0166 -0.8556
  213DOPC   C2629310  10.319  10.267   5.193  0.9552  0.3807  0.4923
  213DOPC   H6R29311  10.219  10.225   5.218  0.5705  1.9204  1.7061
  213DOPC   H6S29312  10.391  10.182   5.190  0.4296 -0.1452 -4.1220
  213DOPC   C2729313  10.344  10.329   5.055 -0.0070 -0.2007 -0.6281
  213DOPC   H7R29314  10.451  10.359   5.050  0.1710 -0.8315 -0.6878
  213DOPC   H7S29315  10.285  10.422   5.059  2.1043  1.3384 -2.8306
  213DOPC   C2829316  10.300  10.246   4.925  0.0882 -0.3407  0.8542
  213DOPC   H8R29317  10.197  10.204   4.937  0.7272 -2.1653  0.3813
  213DOPC   H8S29318  10.362  10.154   4.923  0.5879 -0.0032  0.9277
  213DOPC   C2929319  10.316  10.330   4.802 -0.1292 -0.3204 -0.3644
  213DOPC   H9R29320  10.235  10.398   4.770  0.9036 -0.6864 -4.2593
  213DOPC  C21029321  10.420  10.323   4.723  0.0491 -0.3203 -0.0392
  213DOPC  H10R29322  10.422  10.374   4.625  1.5635  0.1367  0.1939
  213DOPC  C21129323  10.539  10.241   4.746  0.4652 -0.3089  0.0870
  213DOPC  H11R29324  10.515  10.133   4.740  0.0983 -0.1640 -1.4593
  213DOPC  H11S29325  10.578  10.258   4.849  0.3744  1.1521 -0.0945
  213DOPC  C21229326  10.657  10.259   4.647  0.6667 -0.0113  0.1704
  213DOPC  H12R29327  10.617  10.229   4.548 -1.6664  1.9946  0.4055
  213DOPC  H12S29328  10.734  10.193   4.692  0.2700 -1.2288 -0.8836
  213DOPC  C21329329  10.716  10.400   4.638  0.4222  0.1013 -0.3406
  213DOPC  H13R29330  10.716  10.441   4.742 -0.5321  1.7319 -0.9457
  213DOPC  H13S29331  10.636  10.456   4.584 -0.8864 -2.1501 -0.8444
  213DOPC  C21429332  10.845  10.394   4.569 -1.0326  0.5044  0.2228
  213DOPC  H14R29333  10.832  10.315   4.492 -1.9695 -0.1514  1.0271
  213DOPC  H14S29334  10.925  10.354   4.634 -0.4441 -0.5609 -1.1164
  213DOPC  C21529335  10.878  10.528   4.497 -0.4778 -0.1280  0.1389
  213DOPC  H15R29336  10.928  10.590   4.575  1.3770  0.1708 -1.2145
  213DOPC  H15S29337  10.782  10.569   4.458 -0.3192 -2.2150 -2.8108
  213DOPC  C21629338  10.979  10.512   4.379 -0.3032  0.6885  0.0786
  213DOPC  H16R29339  10.943  10.421   4.327  1.2172  0.0620  0.0835
  213DOPC  H16S29340  11.083  10.497   4.416 -1.3995 -1.0322  2.8178
  213DOPC  C21729341  10.976  10.625   4.278  0.4663 -0.5801 -0.2250
  213DOPC  H17R29342  11.025  10.707   4.335  1.1236 -0.2401 -1.2464
  213DOPC  H17S29343  10.871  10.654   4.257  0.5754  0.1732  0.2007
  213DOPC  C21829344  11.049  10.592   4.151 -0.6789 -0.4189  0.5259
  213DOPC  H18R29345  11.086  10.680   4.093 -1.6099 -0.7695 -0.6357
  213DOPC  H18S29346  10.998  10.523   4.081  0.2229  0.3203 -0.9120
  213DOPC  H18T29347  11.141  10.536   4.178 -0.0015 -0.0858 -1.0020
  213DOPC   C3329348   9.988   9.940   5.307  0.0751  0.2030  0.1602
  213DOPC   H3X29349   9.893   9.986   5.340 -0.2862 -0.9995  0.8594
  213DOPC   H3Y29350  10.003   9.841   5.356  1.1198  0.8623  1.2331
  213DOPC   C3429351   9.992   9.937   5.154  0.2867 -0.7173 -0.1945
  213DOPC   H4X29352   9.932   9.848   5.125  1.4056 -2.1523  1.6946
  213DOPC   H4Y29353  10.097   9.920   5.123  0.7503  2.7847 -1.0239
  213DOPC   C3529354   9.939  10.066   5.091  0.6873 -0.2039 -0.2790
  213DOPC   H5X29355  10.007  10.147   5.126  0.5981 -0.6900  1.0700
  213DOPC   H5Y29356   9.835  10.091   5.122  0.3034 -0.3280 -1.4391
  213DOPC   C3629357   9.930  10.065   4.936  0.2715  0.8314 -0.0512
  213DOPC   H6X29358  10.033  10.040   4.902 -0.0495  0.1829 -0.5737
  213DOPC   H6Y29359   9.867   9.980   4.902 -0.2732  1.1120  0.2455
  213DOPC   C3729360   9.889  10.202   4.888 -0.4132 -0.4390  0.9325
  213DOPC   H7X29361   9.800  10.233   4.947  0.3731  2.0860  0.9006
  213DOPC   H7Y29362   9.974  10.267   4.916 -0.8650  0.2023  0.8264
  213DOPC   C3829363   9.868  10.204   4.737  0.0372  0.0015 -0.1799
  213DOPC   H8X29364   9.793  10.130   4.702 -0.6198  0.8371 -0.5789
  213DOPC   H8Y29365   9.970  10.184   4.697 -0.3472  0.3341 -1.3719
  213DOPC   C3929366   9.823  10.335   4.688  0.4815 -0.2980  0.0166
  213DOPC   H9X29367   9.727  10.366   4.732  0.4796  0.3340 -0.4181
  213DOPC  C31029368   9.892  10.417   4.615 -0.2014 -0.2278  0.5817
  213DOPC  H10X29369   9.851  10.514   4.582  2.3838  0.7128 -0.1141
  213DOPC  C31129370  10.027  10.385   4.547 -0.2685  0.2774 -0.1925
  213DOPC  H11X29371  10.091  10.305   4.588  0.7751  0.4718 -1.3690
  213DOPC  H11Y29372  10.093  10.474   4.557 -0.5731  0.6817 -1.5147
  213DOPC  C31229373  10.017  10.363   4.395  0.5377  0.7331 -0.6139
  213DOPC  H12X29374   9.963  10.438   4.334 -2.6638 -1.2203 -0.3818
  213DOPC  H12Y29375   9.947  10.277   4.391 -0.1780  1.2779  0.0661
  213DOPC  C31329376  10.152  10.323   4.330  0.8060 -0.0454 -0.3213
  213DOPC  H13X29377  10.199  10.251   4.400  1.8993  0.5953 -0.3670
  213DOPC  H13Y29378  10.123  10.276   4.234  0.5792  2.3744 -1.5309
  213DOPC  C31429379  10.256  10.435   4.308  0.5237 -0.7039 -0.2981
  213DOPC  H14X29380  10.225  10.514   4.237  0.4654  1.7864  2.3285
  213DOPC  H14Y29381  10.271  10.486   4.406  1.0215  1.2457 -1.3370
  213DOPC  C31529382  10.384  10.364   4.264 -0.0692 -0.1149 -0.3873
  213DOPC  H15X29383  10.362  10.298   4.178 -0.7573 -0.2304 -0.1342
  213DOPC  H15Y29384  10.425  10.292   4.338 -0.7970 -1.9052 -1.6676
  213DOPC  C31629385  10.498  10.465   4.235 -0.2969  0.3136 -0.8799
  213DOPC  H16X29386  10.509  10.531   4.323  0.1437  0.0266 -0.7193
  213DOPC  H16Y29387  10.590  10.405   4.221 -0.0298  0.2823  0.8917
  213DOPC  C31729388  10.466  10.552   4.117  0.0938 -1.0595  0.9256
  213DOPC  H17X29389  10.424  10.498   4.030  0.8355 -1.7946  1.0083
  213DOPC  H17Y29390  10.384  10.622   4.141 -2.5512 -3.5197 -0.3744
  213DOPC  C31829391  10.590  10.641   4.063 -0.5444 -0.1386  0.1499
  213DOPC  H18X29392  10.634  10.699   4.146 -3.0026  0.1927  1.3166
  213DOPC  H18Y29393  10.675  10.578   4.028 -0.2176 -1.5460  3.1942
  213DOPC  H18Z29394  10.549  10.706   3.983 -1.6197 -2.5752 -1.4259
  214DOPC     N29395  12.270   9.777   6.704  0.2732 -0.7112 -0.5683
  214DOPC   C1229396  12.271   9.712   6.568 -0.1717  0.3881  0.5237
  214DOPC  H12A29397  12.174   9.736   6.529 -0.6930 -1.3887  0.6155
  214DOPC  H12B29398  12.276   9.604   6.572  1.7110  0.4032 -0.1226
  214DOPC   C1329399  12.237   9.930   6.704 -0.7072  0.0566 -0.7580
  214DOPC  H13A29400  12.143   9.949   6.654 -1.0318  1.2118  0.2390
  214DOPC  H13B29401  12.222   9.976   6.801  1.1722  2.1294 -1.3488
  214DOPC  H13C29402  12.313   9.986   6.651 -0.6236  1.5994  0.8809
  214DOPC   C1429403  12.396   9.756   6.774 -0.3843 -1.2195  0.3720
  214DOPC  H14A29404  12.388   9.794   6.875  1.0716  1.7823 -0.5068
  214DOPC  H14B29405  12.416   9.651   6.785  0.7551 -1.1261 -0.5929
  214DOPC  H14C29406  12.472   9.810   6.720 -2.4944  2.4171  0.6983
  214DOPC   C1529407  12.165   9.711   6.784 -0.2922 -0.1903  0.2250
  214DOPC  H15A29408  12.158   9.747   6.885  2.1996 -0.4644  0.5405
  214DOPC  H15B29409  12.185   9.605   6.784  1.6697  0.1450 -0.2939
  214DOPC  H15C29410  12.073   9.721   6.727  0.4324  3.6599 -0.5342
  214DOPC   C1129411  12.381   9.759   6.468 -0.1166  0.6750  0.6077
  214DOPC  H11A29412  12.482   9.739   6.511 -0.3976 -1.0504  0.5363
  214DOPC  H11B29413  12.389   9.703   6.373 -0.3803 -0.9687  1.5162
  214DOPC     P29414  12.259   9.954   6.347 -0.1515  0.5487 -0.2289
  214DOPC   O1329415  12.288  10.099   6.321  0.5022  0.4162  0.0853
  214DOPC   O1429416  12.121   9.920   6.396 -0.4487  0.3482 -0.2788
  214DOPC   O1229417  12.368   9.903   6.444  0.0559  0.2473 -0.0100
  214DOPC   O1129418  12.298   9.872   6.218  0.4658 -0.0069  0.3221
  214DOPC    C129419  12.236   9.907   6.092 -0.1558 -0.3150  0.0600
  214DOPC    HA29420  12.253  10.014   6.068 -2.0532  0.5191  2.1288
  214DOPC    HB29421  12.127   9.888   6.093 -0.1799 -0.1718  0.2560
  214DOPC    C229422  12.292   9.823   5.975 -0.9256 -0.4665 -1.2065
  214DOPC    HS29423  12.401   9.833   5.992 -1.0330 -0.2184 -0.6307
  214DOPC   O2129424  12.260   9.899   5.853  0.0272 -0.3455 -0.1203
  214DOPC   C2129425  12.334   9.884   5.746  0.0073  0.3663  0.0266
  214DOPC   O2229426  12.442   9.820   5.749  0.0018  0.5230  0.7031
  214DOPC   C2229427  12.260   9.950   5.626 -0.0105  0.2248 -0.8619
  214DOPC   H2R29428  12.155   9.918   5.636  0.5424 -1.6545 -0.7782
  214DOPC   H2S29429  12.297   9.904   5.532 -0.2197 -1.8798  0.0401
  214DOPC    C329430  12.253   9.670   5.979 -0.2792 -0.3097 -0.4403
  214DOPC    HX29431  12.143   9.678   5.990 -0.0031  0.0837  3.4400
  214DOPC    HY29432  12.291   9.628   6.074 -2.2945 -0.7837  0.2022
  214DOPC   O3129433  12.283   9.590   5.863  0.1560 -0.2026 -0.5399
  214DOPC   C3129434  12.374   9.498   5.881  0.7298 -0.0049  0.7327
  214DOPC   O3229435  12.422   9.470   5.987 -0.2174  0.3868 -0.5235
  214DOPC   C3229436  12.385   9.423   5.749  0.1233 -0.3601 -0.8310
  214DOPC   H2X29437  12.288   9.385   5.709  1.2247 -2.5983 -1.5561
  214DOPC   H2Y29438  12.413   9.501   5.676  2.1463  0.4281  0.7069
  214DOPC   C2329439  12.284  10.093   5.628  0.3223 -0.2776 -0.3251
  214DOPC   H3R29440  12.386  10.118   5.594 -0.5985  3.0340 -1.0061
  214DOPC   H3S29441  12.269  10.138   5.729 -0.5005 -0.0659 -0.5316
  214DOPC   C2429442  12.181  10.156   5.533  0.2437 -1.0314 -0.3767
  214DOPC   H4R29443  12.171  10.258   5.575 -0.2762 -0.1518 -2.4912
  214DOPC   H4S29444  12.075  10.122   5.529 -0.0616 -0.3604  1.2425
  214DOPC   C2529445  12.234  10.183   5.390  0.3354  0.0290 -1.1884
  214DOPC   H5R29446  12.279  10.095   5.341 -0.4861 -1.0932  0.0077
  214DOPC   H5S29447  12.315  10.258   5.406 -1.0123  1.4814 -0.8705
  214DOPC   C2629448  12.135  10.237   5.294  0.2686 -0.9642  0.5277
  214DOPC   H6R29449  12.094  10.332   5.335  0.9458  0.5380 -2.0063
  214DOPC   H6S29450  12.052  10.165   5.280 -1.0077  0.5608  0.0335
  214DOPC   C2729451  12.192  10.275   5.153  0.1301 -0.2031  0.3923
  214DOPC   H7R29452  12.232  10.181   5.109 -0.7201  0.7459 -2.6852
  214DOPC   H7S29453  12.282  10.338   5.171 -1.3210  1.8250  0.9231
  214DOPC   C2829454  12.087  10.340   5.058 -0.2009 -0.3725  0.3647
  214DOPC   H8R29455  12.050  10.429   5.113  0.4166 -0.2406  0.5837
  214DOPC   H8S29456  11.998  10.277   5.037 -1.0387  1.0903 -0.5701
  214DOPC   C2929457  12.153  10.397   4.936 -0.4235  0.7999 -0.2908
  214DOPC   H9R29458  12.206  10.492   4.948  1.0606  0.4671 -3.3522
  214DOPC  C21029459  12.175  10.327   4.823  0.1031 -0.0130  0.2119
  214DOPC  H10R29460  12.239  10.369   4.744  0.5915 -2.6075 -0.8901
  214DOPC  C21129461  12.125  10.181   4.798  0.6175 -0.2632  0.1015
  214DOPC  H11R29462  12.088  10.138   4.893 -2.1517  0.7647 -0.4117
  214DOPC  H11S29463  12.211  10.120   4.764  0.3808 -0.3618 -0.3277
  214DOPC  C21229464  12.013  10.158   4.688  0.2108  0.1173  0.0851
  214DOPC  H12R29465  12.058  10.180   4.589  2.7468 -1.5077  0.7597
  214DOPC  H12S29466  11.922  10.221   4.693  0.5089  0.7046 -1.3933
  214DOPC  C21329467  11.960  10.012   4.671 -0.4232 -0.3593  0.1568
  214DOPC  H13R29468  11.893  10.015   4.582  1.9489 -3.2985 -1.9268
  214DOPC  H13S29469  11.906   9.976   4.761  1.5657 -0.8756  1.2071
  214DOPC  C21429470  12.073   9.901   4.661 -0.0895 -0.4505 -0.2922
  214DOPC  H14R29471  12.127   9.905   4.757 -1.9403 -1.8896  0.8797
  214DOPC  H14S29472  12.136   9.914   4.570 -1.5540  0.2276 -1.2571
  214DOPC  C21529473  12.020   9.759   4.648  0.1760  0.6910 -0.1856
  214DOPC  H15R29474  11.957   9.740   4.558 -0.2218 -1.7266  0.5142
  214DOPC  H15S29475  11.961   9.736   4.739 -1.2893  2.6918 -0.5712
  214DOPC  C21629476  12.127   9.645   4.624  0.4021 -0.7154  0.0174
  214DOPC  H16R29477  12.168   9.657   4.522 -0.5032  2.7035 -0.0679
  214DOPC  H16S29478  12.084   9.546   4.650  2.2184 -1.4176  0.5246
  214DOPC  C21729479  12.244   9.650   4.719  0.0493 -0.6804 -0.0530
  214DOPC  H17R29480  12.214   9.660   4.826 -3.1473  3.0850 -1.0736
  214DOPC  H17S29481  12.300   9.745   4.708 -0.6965 -0.2086  0.1511
  214DOPC  C21829482  12.336   9.524   4.708 -0.1407 -0.5976 -0.2455
  214DOPC  H18R29483  12.376   9.512   4.605  0.3562  1.5451 -0.3415
  214DOPC  H18S29484  12.266   9.437   4.714 -3.5210  1.7258 -2.1338
  214DOPC  H18T29485  12.420   9.525   4.780 -0.8676  0.5485  0.6102
  214DOPC   C3329486  12.495   9.303   5.748  0.1369 -0.7476  0.3870
  214DOPC   H3X29487  12.472   9.252   5.652 -1.4474  0.8964 -0.1527
  214DOPC   H3Y29488  12.489   9.222   5.823  3.0231 -0.9021  0.5796
  214DOPC   C3429489  12.642   9.342   5.741  0.7694 -0.4159 -0.0014
  214DOPC   H4X29490  12.701   9.252   5.711  0.1019  0.0125 -2.8487
  214DOPC   H4Y29491  12.682   9.375   5.839  0.9929 -0.7609  0.0274
  214DOPC   C3529492  12.684   9.454   5.642 -0.2090  0.1802 -0.0921
  214DOPC   H5X29493  12.794   9.458   5.652 -0.2201 -0.4129  0.3073
  214DOPC   H5Y29494  12.645   9.544   5.694  0.3863  0.1921  0.3462
  214DOPC   C3629495  12.635   9.444   5.499  0.0578  0.0162 -0.5200
  214DOPC   H6X29496  12.540   9.387   5.492 -1.2890  2.0445  0.4945
  214DOPC   H6Y29497  12.605   9.545   5.466 -0.8258 -0.2597 -0.5732
  214DOPC   C3729498  12.759   9.396   5.415  0.0009  0.1486  0.5003
  214DOPC   H7X29499  12.842   9.456   5.459  0.1723  0.1969  0.1186
  214DOPC   H7Y29500  12.794   9.293   5.436 -0.6932 -0.6664 -1.9557
  214DOPC   C3829501  12.767   9.418   5.263 -0.5661  0.0155 -0.4333
  214DOPC   H8X29502  12.770   9.523   5.228  2.1192 -0.0325 -0.6029
  214DOPC   H8Y29503  12.678   9.372   5.216  0.6684 -0.4298 -2.4835
  214DOPC   C3929504  12.887   9.350   5.194 -0.1774  0.4051 -0.4456
  214DOPC   H9X29505  12.938   9.273   5.254 -0.2383 -0.8155 -1.9171
  214DOPC  C31029506  12.898   9.327   5.064  0.5337 -0.0566 -0.3756
  214DOPC  H10X29507  12.966   9.249   5.026 -1.8142 -0.4826 -4.2525
  214DOPC  C31129508  12.806   9.372   4.960 -0.5439  0.6879 -0.4483
  214DOPC  H11X29509  12.771   9.477   4.973  0.4076  1.4072 -2.9561
  214DOPC  H11Y29510  12.721   9.305   4.935  0.0018  0.0527 -0.6403
  214DOPC  C31229511  12.893   9.387   4.828  0.4102 -0.3624 -0.9116
  214DOPC  H12X29512  12.942   9.292   4.798  0.2555 -1.0764  0.9207
  214DOPC  H12Y29513  12.974   9.462   4.846 -0.5311  0.1730  1.5573
  214DOPC  C31329514  12.817   9.420   4.703  0.1670  0.0129  0.1177
  214DOPC  H13X29515  12.751   9.506   4.728  0.8488  0.2892  1.0361
  214DOPC  H13Y29516  12.889   9.448   4.623  1.8297 -0.6569  1.3252
  214DOPC  C31429517  12.740   9.305   4.645 -0.3433 -0.1424  0.0774
  214DOPC  H14X29518  12.808   9.218   4.631  1.2752  0.8624  1.2703
  214DOPC  H14Y29519  12.667   9.284   4.727 -0.9940  0.7331 -0.2684
  214DOPC  C31529520  12.659   9.342   4.518 -0.1758  0.3197  0.3423
  214DOPC  H15X29521  12.728   9.359   4.432  1.6860 -0.8997  1.5203
  214DOPC  H15Y29522  12.604   9.432   4.553  0.2785  0.6700  0.1728
  214DOPC  C31629523  12.555   9.238   4.488 -0.7719  0.3890 -0.3853
  214DOPC  H16X29524  12.488   9.231   4.576 -1.0622 -1.9328 -0.7248
  214DOPC  H16Y29525  12.616   9.146   4.477  1.4713  1.9114 -1.4116
  214DOPC  C31729526  12.485   9.270   4.356 -0.2529  0.3950 -0.2120
  214DOPC  H17X29527  12.451   9.375   4.357  2.2091  1.2461  0.7910
  214DOPC  H17Y29528  12.546   9.262   4.263 -0.3165  3.3146 -0.5881
  214DOPC  C31829529  12.364   9.188   4.319  0.6829  0.0308 -0.3957
  214DOPC  H18X29530  12.384   9.079   4.325 -3.5022 -0.8943 -0.5968
  214DOPC  H18Y29531  12.282   9.212   4.390 -0.2917 -4.5344  0.3377
  214DOPC  H18Z29532  12.321   9.214   4.220 -1.0650  2.3753  0.8754
  215DOPC     N29533   1.423  11.969   6.443 -0.5093  0.1491  0.1580
  215DOPC   C1229534   1.559  11.900   6.432 -0.0398 -0.2855 -0.2486
  215DOPC  H12A29535   1.554  11.797   6.465  2.5365 -1.1554 -2.2191
  215DOPC  H12B29536   1.625  11.948   6.503 -0.6422  1.8769 -1.0722
  215DOPC   C1329537   1.323  11.910   6.343 -0.9536 -0.1818 -1.1974
  215DOPC  H13A29538   1.224  11.948   6.359 -0.2453  1.8662 -1.4363
  215DOPC  H13B29539   1.352  11.930   6.241 -0.8452  1.6493 -0.8291
  215DOPC  H13C29540   1.322  11.802   6.355  0.7557 -0.0338  0.8961
  215DOPC   C1429541   1.433  12.116   6.415 -0.0344 -0.0983 -0.1202
  215DOPC  H14A29542   1.512  12.156   6.477 -0.2705 -0.9021  0.7206
  215DOPC  H14B29543   1.452  12.122   6.309  2.3794  0.0762  0.2607
  215DOPC  H14C29544   1.340  12.166   6.438  0.9299  1.2187  1.1716
  215DOPC   C1529545   1.361  11.948   6.573 -0.1781  0.4818 -0.2661
  215DOPC  H15A29546   1.366  11.842   6.590  1.1763  0.5970  0.2504
  215DOPC  H15B29547   1.260  11.987   6.576 -0.4476 -0.2174  2.6977
  215DOPC  H15C29548   1.425  11.982   6.654 -1.8580  0.1913  1.2539
  215DOPC   C1129549   1.623  11.885   6.290 -0.5279 -0.1856 -0.5406
  215DOPC  H11A29550   1.730  11.866   6.316 -0.7031 -1.9727 -1.0021
  215DOPC  H11B29551   1.571  11.803   6.237  0.6842 -1.5065  0.2178
  215DOPC     P29552   1.574  12.003   6.066 -0.0135 -0.0089 -0.0305
  215DOPC   O1329553   1.632  12.119   6.005  0.0923  0.1575 -0.2316
  215DOPC   O1429554   1.424  11.997   6.055 -0.8091  0.0714  0.4925
  215DOPC   O1229555   1.628  12.005   6.218  0.2286 -0.6543 -0.1385
  215DOPC   O1129556   1.634  11.866   6.005 -0.0168 -0.3477  0.9385
  215DOPC    C129557   1.781  11.854   5.996 -0.1523 -0.5386  0.5825
  215DOPC    HA29558   1.815  11.749   6.007  2.0246 -0.1104 -1.2818
  215DOPC    HB29559   1.842  11.907   6.073 -0.0714 -0.0369  0.1782
  215DOPC    C229560   1.829  11.892   5.851 -0.1013  0.2339 -0.1286
  215DOPC    HS29561   1.787  11.994   5.840 -3.2121 -1.0307 -0.9160
  215DOPC   O2129562   1.775  11.798   5.761 -0.3698 -0.3098 -0.6590
  215DOPC   C2129563   1.672  11.840   5.689  0.4400  0.1117 -0.0722
  215DOPC   O2229564   1.622  11.949   5.684  0.3955 -0.0278  0.1911
  215DOPC   C2229565   1.636  11.724   5.600 -0.0293 -0.1674  0.5191
  215DOPC   H2R29566   1.603  11.634   5.655 -2.1539 -0.9829 -1.8853
  215DOPC   H2S29567   1.729  11.691   5.548 -0.6380 -1.2761  0.0976
  215DOPC    C329568   1.985  11.912   5.837  0.0850 -0.1304  0.3738
  215DOPC    HX29569   2.036  11.815   5.857 -1.4760 -0.6188  2.2561
  215DOPC    HY29570   2.006  11.989   5.913  1.2343 -1.4682  1.4553
  215DOPC   O3129571   2.024  11.957   5.704 -0.2176  0.3441 -0.6752
  215DOPC   C3129572   1.988  12.073   5.669 -0.5492 -0.1531  0.2224
  215DOPC   O3229573   1.947  12.158   5.744 -0.7982  0.2740  0.3252
  215DOPC   C3229574   2.002  12.091   5.514 -0.3564  0.1213 -0.0515
  215DOPC   H2X29575   2.079  12.170   5.507  0.0244 -0.1097  1.2966
  215DOPC   H2Y29576   2.051  12.004   5.466 -1.0259 -0.4769  0.3221
  215DOPC   C2329577   1.532  11.775   5.500 -0.3760  0.1770  0.9020
  215DOPC   H3R29578   1.560  11.861   5.435  0.0278 -1.1704 -0.7772
  215DOPC   H3S29579   1.444  11.818   5.553  0.3990  0.6586  1.8251
  215DOPC   C2429580   1.484  11.667   5.408 -0.1059 -0.4856  0.1847
  215DOPC   H4R29581   1.480  11.578   5.475 -0.6341  0.1567  1.0363
  215DOPC   H4S29582   1.567  11.645   5.338  2.6777  0.1181  3.0832
  215DOPC   C2529583   1.351  11.704   5.343  0.8272 -0.0421 -0.2423
  215DOPC   H5R29584   1.347  11.808   5.306  0.8495  0.3583  0.8313
  215DOPC   H5S29585   1.272  11.698   5.421  0.5864  1.1786 -0.3747
  215DOPC   C2629586   1.297  11.606   5.229 -0.2403 -0.4965 -0.6039
  215DOPC   H6R29587   1.374  11.573   5.157 -0.6132 -0.5367 -0.9843
  215DOPC   H6S29588   1.220  11.662   5.172  1.4336  1.7825 -0.7704
  215DOPC   C2729589   1.224  11.494   5.302 -0.4140  0.1304 -0.3226
  215DOPC   H7R29590   1.136  11.524   5.363  0.0400 -0.3629  0.5941
  215DOPC   H7S29591   1.290  11.447   5.378 -1.2264  0.2718  0.4990
  215DOPC   C2829592   1.174  11.380   5.213  0.4832 -0.0864 -0.1068
  215DOPC   H8R29593   1.145  11.298   5.281  0.3068  0.8440  0.9637
  215DOPC   H8S29594   1.263  11.348   5.155  0.0966  0.6655 -1.1622
  215DOPC   C2929595   1.053  11.406   5.126 -0.5445  0.1548  0.0237
  215DOPC   H9R29596   0.975  11.469   5.171  2.3048  4.5453 -0.5109
  215DOPC  C21029597   1.038  11.373   4.995 -0.5071  0.4524 -0.2920
  215DOPC  H10R29598   0.945  11.408   4.949  0.4523  2.6733 -0.6991
  215DOPC  C21129599   1.133  11.294   4.909  0.5565 -0.4286 -0.0199
  215DOPC  H11R29600   1.075  11.211   4.862  0.6803 -0.3639 -0.2860
  215DOPC  H11S29601   1.218  11.251   4.965  1.6482  2.2345  0.5018
  215DOPC  C21229602   1.200  11.376   4.793  0.6392  0.1693 -1.3875
  215DOPC  H12R29603   1.250  11.466   4.835  0.4145 -1.3297  2.6031
  215DOPC  H12S29604   1.111  11.408   4.735 -0.5944 -2.0788 -0.8548
  215DOPC  C21329605   1.301  11.297   4.708 -0.2158  0.0313 -0.2147
  215DOPC  H13R29606   1.383  11.268   4.778  0.6457  2.0723 -0.3158
  215DOPC  H13S29607   1.323  11.369   4.627 -0.8468  2.2879  1.5389
  215DOPC  C21429608   1.253  11.171   4.643 -0.2639  0.2612 -0.0996
  215DOPC  H14R29609   1.148  11.183   4.611 -1.1971 -1.9306  1.8403
  215DOPC  H14S29610   1.246  11.083   4.711 -0.4407 -1.0358 -1.7201
  215DOPC  C21529611   1.339  11.132   4.516  0.0654  0.1131  0.4878
  215DOPC  H15R29612   1.324  11.214   4.442 -2.3088 -0.8492 -0.2060
  215DOPC  H15S29613   1.289  11.045   4.469 -1.1157  0.1006  1.7024
  215DOPC  C21629614   1.488  11.113   4.547  0.4383  0.2721 -0.6710
  215DOPC  H16R29615   1.498  11.002   4.547 -1.2785  0.0295 -3.2385
  215DOPC  H16S29616   1.515  11.144   4.650  0.3626  0.0672 -0.5885
  215DOPC  C21729617   1.585  11.166   4.437  0.5552  0.0052 -0.4447
  215DOPC  H17R29618   1.685  11.186   4.481 -0.1397  1.6056  0.4897
  215DOPC  H17S29619   1.541  11.266   4.420  3.1970  1.1550 -1.0098
  215DOPC  C21829620   1.601  11.089   4.307  0.6435  0.3233 -0.0423
  215DOPC  H18R29621   1.611  10.980   4.329  2.2337  0.4373 -0.1403
  215DOPC  H18S29622   1.682  11.130   4.244 -0.6525  2.6282 -0.3096
  215DOPC  H18T29623   1.507  11.102   4.248  0.9844 -0.7346 -0.8532
  215DOPC   C3329624   1.874  12.119   5.430  0.2945  0.6863 -0.4234
  215DOPC   H3X29625   1.789  12.055   5.460  0.1682  1.7735  1.7317
  215DOPC   H3Y29626   1.904  12.102   5.324 -0.4629 -0.3424 -0.4831
  215DOPC   C3429627   1.816  12.260   5.461  0.5305  0.5019 -0.2449
  215DOPC   H4X29628   1.886  12.344   5.443 -0.5465  1.3345 -0.6846
  215DOPC   H4Y29629   1.791  12.255   5.569  0.9634 -3.7092 -0.1623
  215DOPC   C3529630   1.687  12.296   5.381 -0.5034 -0.1361 -0.1012
  215DOPC   H5X29631   1.684  12.407   5.383 -0.0871 -0.1195 -0.3998
  215DOPC   H5Y29632   1.601  12.257   5.440  0.2913 -1.8285 -0.0038
  215DOPC   C3629633   1.681  12.262   5.230 -0.3564 -0.2200 -0.0290
  215DOPC   H6X29634   1.773  12.296   5.179 -0.9083  1.9574  0.2913
  215DOPC   H6Y29635   1.655  12.157   5.206  2.5993 -0.7978 -1.0041
  215DOPC   C3729636   1.582  12.351   5.157  0.2114 -0.4401 -0.5679
  215DOPC   H7X29637   1.480  12.341   5.200  1.2577  0.2661  2.2544
  215DOPC   H7Y29638   1.602  12.460   5.162 -2.5404  0.1430 -1.0207
  215DOPC   C3829639   1.581  12.303   5.013 -0.1095 -0.2409  0.2582
  215DOPC   H8X29640   1.556  12.195   5.011 -0.9468 -0.0790  1.0874
  215DOPC   H8Y29641   1.682  12.315   4.969 -0.6192  0.5289 -0.7517
  215DOPC   C3929642   1.473  12.368   4.932  0.3781 -0.5160  0.8667
  215DOPC   H9X29643   1.367  12.351   4.956  0.3780 -1.4977  0.2494
  215DOPC  C31029644   1.496  12.454   4.832  0.9997  0.5219 -0.4607
  215DOPC  H10X29645   1.407  12.493   4.781 -1.3633 -1.4799  1.8558
  215DOPC  C31129646   1.623  12.513   4.777  0.0211  0.2228 -0.4095
  215DOPC  H11X29647   1.712  12.454   4.808 -1.1719 -0.7173  1.4145
  215DOPC  H11Y29648   1.641  12.617   4.812  1.9040 -0.5119  0.9325
  215DOPC  C31229649   1.619  12.511   4.619  0.8400 -0.0940  0.9570
  215DOPC  H12X29650   1.565  12.600   4.581  1.5667 -0.0361  0.0246
  215DOPC  H12Y29651   1.580  12.416   4.577  1.6316 -0.0698  0.1407
  215DOPC  C31329652   1.761  12.501   4.563 -0.0791 -0.8079  0.2354
  215DOPC  H13X29653   1.806  12.406   4.599 -0.8633  0.1124  4.0983
  215DOPC  H13Y29654   1.754  12.506   4.453  0.6871  0.9377  0.2338
  215DOPC  C31429655   1.854  12.614   4.613  0.1231 -0.1116 -0.6033
  215DOPC  H14X29656   1.794  12.707   4.607  0.3346  0.2110  1.3824
  215DOPC  H14Y29657   1.874  12.596   4.721  0.5102  0.6237 -0.5473
  215DOPC  C31529658   1.983  12.621   4.534  0.2699 -0.5592  0.4022
  215DOPC  H15X29659   1.966  12.693   4.452  1.6565  0.9094  1.3406
  215DOPC  H15Y29660   2.013  12.517   4.509 -1.8009 -0.4990 -2.8315
  215DOPC  C31629661   2.102  12.689   4.610 -0.0339  0.0047  0.7563
  215DOPC  H16X29662   2.063  12.787   4.646 -0.8974 -0.1588  0.2981
  215DOPC  H16Y29663   2.131  12.622   4.693  0.0486 -0.1242  0.6241
  215DOPC  C31729664   2.218  12.723   4.519  0.3763  0.3374  0.3339
  215DOPC  H17X29665   2.194  12.799   4.441  0.7737  0.0356 -0.0889
  215DOPC  H17Y29666   2.301  12.759   4.583  0.2683  0.6327  0.3088
  215DOPC  C31829667   2.269  12.600   4.449  0.6478  0.1446  0.2415
  215DOPC  H18X29668   2.187  12.548   4.395  1.6856  1.2825 -2.6792
  215DOPC  H18Y29669   2.340  12.625   4.367 -1.3479 -1.1626 -2.0136
  215DOPC  H18Z29670   2.324  12.537   4.521 -1.3164  0.5159  2.1508
  216DOPC     N29671  12.049   0.417   6.201  0.3771  0.5405  0.6933
  216DOPC   C1229672  12.189   0.446   6.141  0.1233  1.0037 -0.0674
  216DOPC  H12A29673  12.267   0.398   6.198  1.2190  2.7091 -0.0506
  216DOPC  H12B29674  12.207   0.553   6.143  0.7296  0.9419 -1.1953
  216DOPC   C1329675  12.012   0.269   6.185  0.2558 -0.2578  0.0523
  216DOPC  H13A29676  12.094   0.204   6.209  0.5980  0.1932  0.1021
  216DOPC  H13B29677  11.924   0.254   6.247 -0.4617  4.3089  0.5106
  216DOPC  H13C29678  11.991   0.246   6.082  2.1285  0.9162 -0.6358
  216DOPC   C1429679  11.945   0.507   6.135  0.2210  1.0084 -0.2063
  216DOPC  H14A29680  11.946   0.610   6.168  0.9236  0.7465  0.6329
  216DOPC  H14B29681  11.967   0.510   6.029 -0.8960  0.3103 -0.4720
  216DOPC  H14C29682  11.849   0.464   6.159  1.8889 -2.4909  0.7488
  216DOPC   C1529683  12.054   0.444   6.345 -0.3517 -0.7827 -0.3698
  216DOPC  H15A29684  11.956   0.441   6.390 -1.1924  1.8528 -1.8278
  216DOPC  H15B29685  12.095   0.544   6.352  0.6689 -1.0547 -1.9417
  216DOPC  H15C29686  12.119   0.374   6.396  1.1726  0.8219 -0.0192
  216DOPC   C1129687  12.218   0.408   5.995  0.9490  0.5834 -1.3635
  216DOPC  H11A29688  12.128   0.439   5.938 -1.1964 -1.5994  0.5846
  216DOPC  H11B29689  12.313   0.459   5.970  2.5595 -1.3218  0.4785
  216DOPC     P29690  12.355   0.197   6.049  0.1103 -0.1730  0.6932
  216DOPC   O1329691  12.313   0.077   6.118  0.8666  0.1953  0.4988
  216DOPC   O1429692  12.426   0.296   6.133 -0.1967  0.8254 -0.3888
  216DOPC   O1229693  12.231   0.258   5.980 -0.1733 -0.4132 -0.0298
  216DOPC   O1129694  12.451   0.161   5.933  0.0933 -0.2616  0.2316
  216DOPC    C129695  12.430   0.217   5.802 -0.0653 -0.3419 -0.0806
  216DOPC    HA29696  12.455   0.325   5.800 -2.0142  0.1995  1.2623
  216DOPC    HB29697  12.325   0.208   5.765 -0.9172 -0.1074  2.0990
  216DOPC    C229698  12.518   0.147   5.693  0.2578  0.6253 -0.8182
  216DOPC    HS29699  12.501   0.198   5.596 -0.1096  0.4098 -0.8690
  216DOPC   O2129700  12.476   0.005   5.690  0.4605 -0.0274  0.2643
  216DOPC   C2129701  12.479  -0.059   5.572 -0.2422 -0.4373 -0.4494
  216DOPC   O2229702  12.521  -0.010   5.469  0.5690  0.3257  0.7352
  216DOPC   C2229703  12.414  -0.188   5.582  0.5412 -0.2299  0.2459
  216DOPC   H2R29704  12.329  -0.188   5.510  1.7008  3.0155 -1.3206
  216DOPC   H2S29705  12.370  -0.197   5.683 -1.1877  2.5246 -0.1424
  216DOPC    C329706  12.678   0.156   5.723 -0.0154 -0.2231 -0.1737
  216DOPC    HX29707  12.699   0.081   5.802  1.8067 -0.6194 -0.9662
  216DOPC    HY29708  12.704   0.260   5.751  0.4939 -0.3925 -0.0067
  216DOPC   O3129709  12.765   0.116   5.609 -0.5883  0.1899  0.8247
  216DOPC   C3129710  12.789   0.216   5.515 -0.2798  0.3252  0.1859
  216DOPC   O3229711  12.761   0.333   5.530  0.2099  0.0570  0.0208
  216DOPC   C3229712  12.863   0.162   5.394 -0.7799  0.3025  0.3151
  216DOPC   H2X29713  12.827   0.060   5.367 -0.5542  0.4495 -0.5585
  216DOPC   H2Y29714  12.838   0.228   5.309  2.3760 -1.0966 -1.8995
  216DOPC   C2329715  12.505  -0.308   5.548 -0.3026  0.2235  0.6222
  216DOPC   H3R29716  12.443  -0.396   5.574 -1.6350  1.0574  0.3308
  216DOPC   H3S29717  12.597  -0.300   5.611  1.2128 -0.2646 -1.4143
  216DOPC   C2429718  12.535  -0.312   5.396 -0.4068 -0.6101 -0.5543
  216DOPC   H4R29719  12.610  -0.233   5.374 -0.0429 -1.6116 -3.3609
  216DOPC   H4S29720  12.444  -0.298   5.333 -1.0011  1.9257  0.7154
  216DOPC   C2529721  12.597  -0.447   5.361  0.4003 -1.1530 -0.0053
  216DOPC   H5R29722  12.519  -0.525   5.347 -2.3341  1.6102 -1.7025
  216DOPC   H5S29723  12.659  -0.474   5.448 -1.4364 -0.3506  1.6319
  216DOPC   C2629724  12.690  -0.437   5.235 -0.7825  0.2829  0.0311
  216DOPC   H6R29725  12.784  -0.394   5.275  0.6065 -1.3867 -1.3434
  216DOPC   H6S29726  12.648  -0.380   5.149  1.5352  0.7826 -0.8275
  216DOPC   C2729727  12.720  -0.565   5.172  0.0193  1.2592 -0.2797
  216DOPC   H7R29728  12.619  -0.608   5.153  0.6069  0.1468 -0.9844
  216DOPC   H7S29729  12.782  -0.617   5.249 -0.4730  0.8802 -0.1288
  216DOPC   C2829730  12.789  -0.552   5.032  0.0440 -0.0447 -0.5443
  216DOPC   H8R29731  12.825  -0.655   5.013 -2.1676 -1.3813  1.8976
  216DOPC   H8S29732  12.879  -0.488   5.048  1.0454 -0.8735 -2.5626
  216DOPC   C2929733  12.696  -0.493   4.929  1.0989  0.1917  0.0211
  216DOPC   H9R29734  12.681  -0.385   4.918 -1.5256 -0.0830  0.3825
  216DOPC  C21029735  12.613  -0.571   4.860  0.6481  0.6445 -0.5633
  216DOPC  H10R29736  12.555  -0.521   4.781 -0.9819 -0.4590 -0.1243
  216DOPC  C21129737  12.590  -0.721   4.871 -0.2614 -0.2017  0.1128
  216DOPC  H11R29738  12.620  -0.755   4.972 -1.1030 -1.0226  0.0982
  216DOPC  H11S29739  12.653  -0.773   4.795 -1.8933  1.9416 -2.9415
  216DOPC  C21229740  12.445  -0.761   4.852 -0.5617 -0.5315  0.2969
  216DOPC  H12R29741  12.387  -0.705   4.929  0.0211  2.1740 -1.1068
  216DOPC  H12S29742  12.430  -0.869   4.871  0.1572 -0.8401 -0.8078
  216DOPC  C21329743  12.386  -0.744   4.706 -0.3674 -0.4118 -0.6243
  216DOPC  H13R29744  12.456  -0.787   4.631  2.1494  1.5661  0.4180
  216DOPC  H13S29745  12.368  -0.634   4.700  0.2487 -0.0412  2.4678
  216DOPC  C21429746  12.255  -0.816   4.694  0.1103 -0.1555 -0.2116
  216DOPC  H14R29747  12.187  -0.777   4.772 -1.2076 -0.3352 -1.2408
  216DOPC  H14S29748  12.280  -0.924   4.702  2.3720  0.2203 -1.4182
  216DOPC  C21529749  12.197  -0.785   4.557  0.0525 -0.8869  0.2225
  216DOPC  H15R29750  12.215  -0.684   4.516 -1.1918 -0.5612  0.4137
  216DOPC  H15S29751  12.087  -0.805   4.563 -0.1526  0.4288  1.4219
  216DOPC  C21629752  12.240  -0.897   4.457 -0.3377 -0.3754  0.1836
  216DOPC  H16R29753  12.228  -0.996   4.505  1.1454  0.3351  2.1470
  216DOPC  H16S29754  12.348  -0.880   4.439 -0.2966 -1.0865 -0.2568
  216DOPC  C21729755  12.176  -0.908   4.320  0.4513 -0.5595  0.0357
  216DOPC  H17R29756  12.184  -0.805   4.278  0.8194 -0.2014  0.9632
  216DOPC  H17S29757  12.068  -0.931   4.334 -0.3622  1.7688 -1.5958
  216DOPC  C21829758  12.242  -1.011   4.226 -0.0574  0.3344  0.7901
  216DOPC  H18R29759  12.265  -1.104   4.283 -0.4595  1.2771  2.5592
  216DOPC  H18S29760  12.331  -0.964   4.180  0.3725 -2.2890 -1.2744
  216DOPC  H18T29761  12.180  -1.034   4.136  0.6707 -0.0114  0.3650
  216DOPC   C3329762  13.017   0.170   5.406  0.4873  0.1912  0.1848
  216DOPC   H3X29763  13.056   0.109   5.490  1.5642  1.1274  0.3832
  216DOPC   H3Y29764  13.038   0.278   5.412 -1.9808  0.8001 -0.7963
  216DOPC   C3429765  13.074   0.107   5.279 -0.9214  1.0770 -0.5115
  216DOPC   H4X29766  13.014   0.149   5.195 -2.4954 -1.4537 -0.7898
  216DOPC   H4Y29767  13.040   0.001   5.285 -0.3143  0.8561 -0.9437
  216DOPC   C3529768  13.228   0.112   5.252  0.4376  0.1776 -0.0365
  216DOPC   H5X29769  13.274   0.050   5.332 -0.9131  2.6457  2.8074
  216DOPC   H5Y29770  13.258   0.217   5.268  1.2782 -0.0258 -0.2334
  216DOPC   C3629771  13.268   0.053   5.115 -0.5602  0.8837  0.6029
  216DOPC   H6X29772  13.379   0.047   5.121 -0.6258 -3.9008  0.3245
  216DOPC   H6Y29773  13.217  -0.045   5.119  1.7819 -0.3819  3.3842
  216DOPC   C3729774  13.226   0.135   4.990  0.2179  0.8309 -0.1388
  216DOPC   H7X29775  13.124   0.167   5.022 -0.1930 -0.2082 -0.3715
  216DOPC   H7Y29776  13.294   0.221   4.973  2.3537 -0.4529  1.4651
  216DOPC   C3829777  13.210   0.048   4.861 -0.3241 -0.5374  0.4904
  216DOPC   H8X29778  13.117  -0.012   4.859 -0.1560 -0.8286 -1.8817
  216DOPC   H8Y29779  13.290  -0.029   4.861 -1.2848 -1.6303 -1.5512
  216DOPC   C3929780  13.220   0.128   4.732 -0.1505 -0.6001 -0.2237
  216DOPC   H9X29781  13.126   0.175   4.699  0.5343 -0.0059 -1.3890
  216DOPC  C31029782  13.335   0.158   4.670  0.1283  0.7671 -0.2379
  216DOPC  H10X29783  13.341   0.227   4.584  2.7690  1.3765  0.3434
  216DOPC  C31129784  13.472   0.117   4.718 -0.3075 -0.7138  0.2528
  216DOPC  H11X29785  13.489   0.128   4.827  1.2883 -1.1356  0.0709
  216DOPC  H11Y29786  13.540   0.192   4.674 -3.7449  2.7469  0.3605
  216DOPC  C31229787  13.519  -0.024   4.675  0.1250  0.0949  0.2201
  216DOPC  H12X29788  13.429  -0.088   4.684 -0.3290  0.8102  0.9533
  216DOPC  H12Y29789  13.593  -0.053   4.753  1.5776  0.5334 -0.9419
  216DOPC  C31329790  13.599  -0.023   4.544 -0.2790 -0.3968 -0.0111
  216DOPC  H13X29791  13.684   0.045   4.564 -1.8633  1.9850 -1.0342
  216DOPC  H13Y29792  13.634  -0.125   4.515 -1.7354 -0.4843 -1.6446
  216DOPC  C31429793  13.521   0.015   4.419  0.1756  0.1888  0.4667
  216DOPC  H14X29794  13.441  -0.059   4.397 -1.5097  1.9607  0.3379
  216DOPC  H14Y29795  13.467   0.112   4.426  0.2351  0.3963 -1.4475
  216DOPC  C31529796  13.606   0.019   4.286  0.1890 -0.2418  0.1489
  216DOPC  H15X29797  13.540   0.015   4.197 -0.5496 -0.6743  0.7039
  216DOPC  H15Y29798  13.670  -0.070   4.271  0.6598  0.1461 -0.1674
  216DOPC  C31629799  13.708   0.138   4.281 -0.9325 -0.3953  0.0999
  216DOPC  H16X29800  13.660   0.237   4.296  0.4914  0.6658 -1.8266
  216DOPC  H16Y29801  13.777   0.123   4.367 -2.9605 -1.0174  1.7086
  216DOPC  C31729802  13.786   0.152   4.151  0.1258 -0.2022 -0.3384
  216DOPC  H17X29803  13.834   0.252   4.144  0.2594 -0.2620 -0.2789
  216DOPC  H17Y29804  13.858   0.069   4.133 -0.2766 -0.9664  1.3999
  216DOPC  C31829805  13.689   0.159   4.027 -0.1073  0.1495 -0.3016
  216DOPC  H18X29806  13.629   0.067   4.013  1.6747 -0.9639 -0.9281
  216DOPC  H18Y29807  13.618   0.244   4.037  0.2178  0.4091 -0.1749
  216DOPC  H18Z29808  13.751   0.159   3.935 -1.0241 -0.4531 -0.9333
  217DOPC     N29809  12.355  11.185   6.526 -0.3056 -0.3863 -0.3873
  217DOPC   C1229810  12.289  11.197   6.391  0.1276  0.7088  0.2910
  217DOPC  H12A29811  12.337  11.265   6.322 -1.7744 -0.5701 -2.4669
  217DOPC  H12B29812  12.188  11.234   6.398 -0.2821 -0.0692 -1.1321
  217DOPC   C1329813  12.503  11.161   6.497 -0.1483 -0.1517  0.2257
  217DOPC  H13A29814  12.517  11.075   6.433  0.6299 -0.7221  1.1303
  217DOPC  H13B29815  12.549  11.241   6.441  0.3341  1.6792  2.9921
  217DOPC  H13C29816  12.568  11.152   6.584 -1.6183 -1.1067  1.2749
  217DOPC   C1429817  12.306  11.075   6.612 -0.4647 -0.4487 -0.1120
  217DOPC  H14A29818  12.294  10.981   6.560 -0.0534 -0.4704 -0.1748
  217DOPC  H14B29819  12.364  11.058   6.702 -0.7925  2.3142  0.7108
  217DOPC  H14C29820  12.208  11.104   6.647 -0.2935 -0.0681  0.0585
  217DOPC   C1529821  12.344  11.315   6.603 -0.3740 -0.0450 -0.4730
  217DOPC  H15A29822  12.243  11.339   6.632 -0.1867  1.2551 -0.8270
  217DOPC  H15B29823  12.376  11.400   6.546  0.8102  1.0979  1.7527
  217DOPC  H15C29824  12.416  11.320   6.683 -0.3829  0.6976 -0.5088
  217DOPC   C1129825  12.285  11.067   6.305  0.1406  0.0711  0.5444
  217DOPC  H11A29826  12.251  11.093   6.202  0.6806 -1.3754 -0.0272
  217DOPC  H11B29827  12.389  11.027   6.300 -1.0896 -3.3960  0.4553
  217DOPC     P29828  12.049  10.980   6.371  0.1455 -0.0821 -0.2172
  217DOPC   O1329829  12.024  11.114   6.311  0.5208 -0.3439  0.1107
  217DOPC   O1429830  11.998  10.956   6.508  0.1793  0.1034 -0.7560
  217DOPC   O1229831  12.208  10.969   6.362 -0.2404 -0.2431  0.3575
  217DOPC   O1129832  11.998  10.862   6.280 -0.0660  0.2628 -0.9336
  217DOPC    C129833  12.056  10.734   6.292 -0.8345  0.7134 -0.0870
  217DOPC    HA29834  11.978  10.658   6.266 -1.1019  0.3925  1.5532
  217DOPC    HB29835  12.095  10.703   6.391 -1.4786  3.6037  1.1741
  217DOPC    C229836  12.174  10.708   6.187 -0.6257  0.7679 -0.7378
  217DOPC    HS29837  12.258  10.779   6.204 -0.7875  0.8645 -0.3253
  217DOPC   O2129838  12.123  10.755   6.062  0.5569 -0.2460  0.4601
  217DOPC   C2129839  12.201  10.766   5.966 -0.5497 -0.7001 -0.8749
  217DOPC   O2229840  12.320  10.742   5.969 -0.9303 -0.2204  0.4047
  217DOPC   C2229841  12.125  10.807   5.842 -0.5224  1.0089 -0.1156
  217DOPC   H2R29842  12.021  10.783   5.871  0.9196 -1.6556  3.9044
  217DOPC   H2S29843  12.150  10.727   5.769  0.5423  1.4360 -0.2357
  217DOPC    C329844  12.217  10.558   6.187 -0.3353 -0.3307  0.3032
  217DOPC    HX29845  12.266  10.550   6.286  1.3762 -0.7487 -0.5292
  217DOPC    HY29846  12.304  10.556   6.118 -0.0645 -0.0669  0.6317
  217DOPC   O3129847  12.108  10.467   6.175  0.1100  0.1055 -0.0611
  217DOPC   C3129848  12.136  10.358   6.101 -0.0068  0.3755  0.2012
  217DOPC   O3229849  12.242  10.321   6.056  0.1861  0.2691 -0.6057
  217DOPC   C3229850  12.010  10.280   6.055 -0.0874 -0.5595 -0.1583
  217DOPC   H2X29851  12.050  10.193   5.997 -0.0521 -0.1855 -0.7087
  217DOPC   H2Y29852  11.959  10.244   6.146  1.1724  0.6782  1.0831
  217DOPC   C2329853  12.159  10.938   5.783  0.5578  0.3552  0.1621
  217DOPC   H3R29854  12.254  10.930   5.726  1.5175  0.5905  1.6578
  217DOPC   H3S29855  12.167  11.027   5.849 -0.5814  2.6716 -2.6348
  217DOPC   C2429856  12.050  10.980   5.677 -0.3134  0.4246 -1.0410
  217DOPC   H4R29857  12.020  10.891   5.619  0.1704  0.5744 -1.5244
  217DOPC   H4S29858  12.094  11.056   5.608  0.8424  0.1028 -0.6815
  217DOPC   C2529859  11.922  11.040   5.726 -0.8379 -0.0521  0.3924
  217DOPC   H5R29860  11.948  11.132   5.782  0.5367 -0.1469 -0.0558
  217DOPC   H5S29861  11.862  10.975   5.793  0.9835 -2.4366 -0.1469
  217DOPC   C2629862  11.819  11.077   5.613 -0.2487  0.8047  0.1821
  217DOPC   H6R29863  11.859  11.167   5.562  1.5991  0.7611  1.4560
  217DOPC   H6S29864  11.733  11.106   5.677 -0.9208 -0.7342  0.0297
  217DOPC   C2729865  11.781  10.965   5.511  1.2083  0.0920 -0.5079
  217DOPC   H7R29866  11.799  10.863   5.551 -0.8404  0.5723  1.9405
  217DOPC   H7S29867  11.847  10.965   5.422 -1.6009 -1.0938 -2.7261
  217DOPC   C2829868  11.634  10.975   5.462  0.1026 -0.6692 -0.1107
  217DOPC   H8R29869  11.620  11.072   5.409  0.7311 -1.2992 -1.4779
  217DOPC   H8S29870  11.571  10.975   5.553  0.5125 -1.4332  0.1839
  217DOPC   C2929871  11.592  10.872   5.365  0.3654  0.5097 -0.3480
  217DOPC   H9R29872  11.608  10.769   5.401 -1.2040  0.6529  0.8946
  217DOPC  C21029873  11.551  10.881   5.238  0.2249  0.0528  0.1887
  217DOPC  H10R29874  11.536  10.791   5.176 -0.1765 -0.1468  0.5734
  217DOPC  C21129875  11.520  11.001   5.161  0.2345  0.0409  0.0442
  217DOPC  H11R29876  11.552  10.994   5.055  1.3105  0.2805  0.3430
  217DOPC  H11S29877  11.568  11.096   5.193 -0.3345  0.9675 -1.7108
  217DOPC  C21229878  11.366  11.030   5.159 -0.1908 -0.1542 -0.3287
  217DOPC  H12R29879  11.327  11.017   5.262  0.4598 -0.6917 -0.1472
  217DOPC  H12S29880  11.318  10.957   5.090  1.1896 -0.3476 -1.1359
  217DOPC  C21329881  11.332  11.172   5.120 -0.0477 -0.0711  0.5389
  217DOPC  H13R29882  11.394  11.222   5.196  0.4325 -1.0842  0.8348
  217DOPC  H13S29883  11.227  11.199   5.142 -0.1979 -0.2698  0.0917
  217DOPC  C21429884  11.375  11.210   4.964 -0.4742  0.4804 -0.3505
  217DOPC  H14R29885  11.306  11.186   4.880  1.6363  0.7793 -2.2431
  217DOPC  H14S29886  11.458  11.143   4.935 -0.3868  0.9954 -1.3342
  217DOPC  C21529887  11.405  11.354   4.947 -0.4932 -0.3080  0.4890
  217DOPC  H15R29888  11.488  11.387   5.014  0.3590  1.5754 -1.3629
  217DOPC  H15S29889  11.318  11.417   4.975 -0.6316 -1.6633  3.5358
  217DOPC  C21629890  11.449  11.380   4.795 -0.0534 -0.3733 -0.2864
  217DOPC  H16R29891  11.527  11.302   4.779 -0.0305 -0.5005  0.4189
  217DOPC  H16S29892  11.496  11.481   4.787  0.8825 -0.8688 -1.4580
  217DOPC  C21729893  11.339  11.370   4.689  0.0841  0.0954  0.3250
  217DOPC  H17R29894  11.294  11.472   4.681  0.3556  0.2497  0.7485
  217DOPC  H17S29895  11.260  11.300   4.724 -2.2819  1.3541 -2.0671
  217DOPC  C21829896  11.387  11.331   4.550 -0.0874 -0.2524  0.0870
  217DOPC  H18R29897  11.436  11.232   4.543  1.5760  0.3961  1.8118
  217DOPC  H18S29898  11.457  11.410   4.515  0.6332 -0.2151  1.5344
  217DOPC  H18T29899  11.307  11.338   4.473  0.7141  2.7951 -0.5996
  217DOPC   C3329900  11.912  10.366   5.974 -0.3483 -0.0781 -0.5661
  217DOPC   H3X29901  11.914  10.455   6.040  0.6261 -1.5343  1.4571
  217DOPC   H3Y29902  11.812  10.317   5.978 -0.8707  0.9649 -0.4629
  217DOPC   C3429903  11.967  10.368   5.830 -0.1313 -0.4407 -0.4717
  217DOPC   H4X29904  11.968  10.264   5.791 -1.3333 -0.2896 -0.9245
  217DOPC   H4Y29905  12.074  10.398   5.832  0.3129 -1.7860 -2.0082
  217DOPC   C3529906  11.909  10.475   5.736  0.0108  0.0618 -0.2731
  217DOPC   H5X29907  11.924  10.572   5.788  0.6612  0.6919 -1.5980
  217DOPC   H5Y29908  11.799  10.462   5.733 -0.2638  2.1433 -1.4042
  217DOPC   C3629909  11.984  10.489   5.604  0.0324 -0.5378  0.4305
  217DOPC   H6X29910  12.093  10.491   5.620  0.2455  0.2159 -0.9027
  217DOPC   H6Y29911  11.962  10.391   5.557 -0.1090 -0.3325  0.0600
  217DOPC   C3729912  11.930  10.606   5.529  0.1522 -0.6277 -0.3688
  217DOPC   H7X29913  11.822  10.591   5.506 -0.7424 -0.1685  2.9578
  217DOPC   H7Y29914  11.935  10.699   5.589  0.7182 -0.2248 -1.0271
  217DOPC   C3829915  11.997  10.638   5.388 -0.6627 -0.2996 -0.9485
  217DOPC   H8X29916  11.915  10.680   5.326 -1.0503  2.4677  1.1783
  217DOPC   H8Y29917  12.019  10.543   5.335  1.3975 -0.0600 -0.6209
  217DOPC   C3929918  12.120  10.728   5.382  0.2223  0.0936  0.2397
  217DOPC   H9X29919  12.204  10.709   5.449  0.3139  0.4563  0.2307
  217DOPC  C31029920  12.126  10.831   5.294 -0.4307  0.3795  0.2451
  217DOPC  H10X29921  12.218  10.890   5.286 -0.5064  0.4623 -0.0181
  217DOPC  C31129922  12.029  10.854   5.178 -0.6633 -0.2466  0.9343
  217DOPC  H11X29923  12.042  10.953   5.131 -0.2224  0.3956  2.3634
  217DOPC  H11Y29924  11.926  10.858   5.220 -1.5953  0.0445 -1.2601
  217DOPC  C31229925  12.039  10.744   5.064 -0.6788 -0.4893 -0.0683
  217DOPC  H12X29926  11.962  10.664   5.077  0.7555 -1.7749  0.7981
  217DOPC  H12Y29927  12.141  10.699   5.060 -0.4600 -0.0901  0.9552
  217DOPC  C31329928  12.007  10.800   4.921  0.1796 -0.0710 -0.2365
  217DOPC  H13X29929  11.896  10.801   4.922  0.0581 -3.0504  0.3129
  217DOPC  H13Y29930  12.053  10.900   4.911 -1.5588  0.6090 -2.0375
  217DOPC  C31429931  12.061  10.718   4.790  1.2469 -0.1016  1.0837
  217DOPC  H14X29932  12.169  10.739   4.778  0.9292  0.8641 -0.2487
  217DOPC  H14Y29933  12.029  10.613   4.805  1.9769 -0.0583  3.2586
  217DOPC  C31529934  12.004  10.772   4.654  0.2968 -0.7591  0.4131
  217DOPC  H15X29935  11.972  10.876   4.677 -1.9298 -1.3418  0.2148
  217DOPC  H15Y29936  11.917  10.708   4.630  0.7394 -1.7299  1.3454
  217DOPC  C31629937  12.100  10.774   4.534  0.3145 -0.4692 -0.5726
  217DOPC  H16X29938  12.184  10.844   4.552  0.4476 -0.9497  0.7838
  217DOPC  H16Y29939  12.133  10.669   4.523 -0.5459 -0.6601 -1.4743
  217DOPC  C31729940  12.031  10.823   4.407 -0.7243  0.1029  0.3776
  217DOPC  H17X29941  11.942  10.760   4.388 -2.0355  1.4953  1.5927
  217DOPC  H17Y29942  11.999  10.930   4.406 -1.3492 -0.0294  2.3166
  217DOPC  C31829943  12.139  10.810   4.290  0.0782 -0.5783 -0.4709
  217DOPC  H18X29944  12.095  10.872   4.209  0.5079  1.5505  0.8266
  217DOPC  H18Y29945  12.227  10.863   4.333  0.7080 -2.0966  0.1676
  217DOPC  H18Z29946  12.150  10.703   4.262 -0.9094 -0.6806 -0.4930
  218DOPC     N29947  11.901   2.472   6.583  0.5264 -0.5823 -0.4228
  218DOPC   C1229948  11.956   2.457   6.444  0.1858 -0.8845 -0.1677
  218DOPC  H12A29949  11.967   2.555   6.399  0.5598  0.3807  2.4866
  218DOPC  H12B29950  11.886   2.400   6.385  0.2485  0.1619 -1.3041
  218DOPC   C1329951  11.791   2.571   6.577 -0.4761 -0.7652 -1.2055
  218DOPC  H13A29952  11.711   2.552   6.507 -0.6798  2.0016 -1.8178
  218DOPC  H13B29953  11.743   2.588   6.672  0.2445 -0.3397 -0.9043
  218DOPC  H13C29954  11.823   2.671   6.551 -1.0397 -0.0915  0.5238
  218DOPC   C1429955  11.997   2.531   6.679 -0.3586 -1.0134 -0.1704
  218DOPC  H14A29956  12.091   2.478   6.673  0.4921  0.6174 -3.4312
  218DOPC  H14B29957  12.025   2.629   6.645 -0.0288  0.3926  3.6725
  218DOPC  H14C29958  11.957   2.546   6.778 -0.3280  2.1523 -0.5614
  218DOPC   C1529959  11.847   2.335   6.625 -0.1665  0.0908  0.1366
  218DOPC  H15A29960  11.917   2.254   6.629  0.5243  0.3420 -3.3390
  218DOPC  H15B29961  11.788   2.305   6.539  0.4337  1.6691 -0.8878
  218DOPC  H15C29962  11.785   2.342   6.713  0.2484  0.9611  0.3722
  218DOPC   C1129963  12.100   2.396   6.423  0.1239 -0.1958 -0.1889
  218DOPC  H11A29964  12.140   2.417   6.321  2.7295 -2.2197  0.3220
  218DOPC  H11B29965  12.173   2.445   6.492 -0.5403 -0.1320  0.4778
  218DOPC     P29966  12.067   2.151   6.333  0.0105  0.1049 -0.2483
  218DOPC   O1329967  11.926   2.178   6.287  0.0570 -0.3806  0.3788
  218DOPC   O1429968  12.107   2.017   6.369  0.6397 -0.9157 -0.2572
  218DOPC   O1229969  12.110   2.258   6.445  0.3821 -0.1981  0.2197
  218DOPC   O1129970  12.163   2.188   6.213  0.2192 -0.4993  0.3303
  218DOPC    C129971  12.152   2.144   6.080  0.7458 -0.0764  0.2879
  218DOPC    HA29972  12.089   2.055   6.055  1.0702  0.0602 -1.0947
  218DOPC    HB29973  12.253   2.111   6.049  0.9061 -0.6890  1.4270
  218DOPC    C229974  12.105   2.255   5.989 -0.6638 -0.1583  0.1175
  218DOPC    HS29975  12.012   2.306   6.023 -0.6218  1.5469 -2.0308
  218DOPC   O2129976  12.098   2.198   5.855 -0.3022 -0.2145 -0.3008
  218DOPC   C2129977  11.973   2.179   5.810 -0.1252 -0.2421 -0.4192
  218DOPC   O2229978  11.875   2.200   5.876  0.6013  0.2439  0.3177
  218DOPC   C2229979  11.986   2.151   5.665  0.9343  0.2023  0.4228
  218DOPC   H2R29980  11.883   2.117   5.641  1.3361 -0.6299 -0.1905
  218DOPC   H2S29981  12.055   2.064   5.659  1.7507  0.8074  0.9145
  218DOPC    C329982  12.209   2.371   5.990 -0.2364  0.1403 -0.5181
  218DOPC    HX29983  12.308   2.330   5.960  0.6432  1.4938  0.4091
  218DOPC    HY29984  12.218   2.418   6.090 -2.6117 -2.6838  1.1796
  218DOPC   O3129985  12.172   2.471   5.893  0.0027 -0.2583 -0.2887
  218DOPC   C3129986  12.219   2.593   5.914  0.5082  0.2094 -0.3097
  218DOPC   O3229987  12.286   2.626   6.011 -0.2992  0.3967  0.1812
  218DOPC   C3229988  12.167   2.685   5.817 -0.5142  0.4777 -0.0965
  218DOPC   H2X29989  12.174   2.634   5.718 -0.0845  0.7466 -0.2078
  218DOPC   H2Y29990  12.056   2.687   5.827 -0.7826  1.0010 -2.4823
  218DOPC   C2329991  12.018   2.267   5.565 -0.0911 -0.1804 -0.7397
  218DOPC   H3R29992  12.040   2.251   5.457  0.1952  0.0699 -0.7176
  218DOPC   H3S29993  12.108   2.316   5.608  0.4529 -3.5046  2.4714
  218DOPC   C2429994  11.892   2.365   5.564  0.5094  0.3794 -0.5270
  218DOPC   H4R29995  11.886   2.411   5.665 -2.4367 -0.6520 -0.1193
  218DOPC   H4S29996  11.795   2.314   5.542  0.7322  0.2120 -1.1610
  218DOPC   C2529997  11.903   2.480   5.455 -0.0369  0.0904 -0.2014
  218DOPC   H5R29998  12.006   2.521   5.458  0.2760 -0.7254  0.5868
  218DOPC   H5S29999  11.827   2.554   5.490  0.6992  1.3746 -1.2377
  218DOPC   C2630000  11.861   2.438   5.313 -0.7114 -0.3693 -0.4642
  218DOPC   H6R30001  11.761   2.394   5.295 -1.1511  0.2240  0.4426
  218DOPC   H6S30002  11.941   2.370   5.275 -0.9429 -0.7938 -0.1964
  218DOPC   C2730003  11.862   2.555   5.210  0.5779  1.0524  0.4529
  218DOPC   H7R30004  11.964   2.599   5.208  0.4404  1.3550 -1.1410
  218DOPC   H7S30005  11.795   2.633   5.252  0.4201  1.1434  0.0358
  218DOPC   C2830006  11.817   2.512   5.073  0.2553  0.2136  0.2856
  218DOPC   H8R30007  11.740   2.434   5.092  0.4063 -0.1045 -0.3716
  218DOPC   H8S30008  11.907   2.462   5.031  1.1658  0.6495  1.6819
  218DOPC   C2930009  11.764   2.621   4.984  0.5390 -0.2741 -0.1050
  218DOPC   H9R30010  11.706   2.702   5.030  1.6473  0.7717 -0.5005
  218DOPC  C21030011  11.789   2.622   4.854 -0.2038 -0.6153  0.8090
  218DOPC  H10R30012  11.758   2.712   4.799  1.0351 -1.3994 -1.2754
  218DOPC  C21130013  11.882   2.527   4.769  0.1262  0.5049  0.7822
  218DOPC  H11R30014  11.914   2.432   4.817  1.6104 -0.0054 -1.1284
  218DOPC  H11S30015  11.978   2.573   4.738  0.4611  0.3426  1.5575
  218DOPC  C21230016  11.791   2.489   4.642 -0.0368 -0.2972  0.2419
  218DOPC  H12R30017  11.784   2.582   4.582  2.4365 -1.0554 -1.3600
  218DOPC  H12S30018  11.690   2.444   4.659  0.8370 -2.0570  0.9851
  218DOPC  C21330019  11.858   2.392   4.552 -0.5026  0.0467  0.2624
  218DOPC  H13R30020  11.876   2.308   4.622 -1.1837 -0.2687  0.0678
  218DOPC  H13S30021  11.963   2.425   4.533 -0.9219  0.9423 -0.5924
  218DOPC  C21430022  11.778   2.350   4.426 -0.3924 -0.2511  0.3949
  218DOPC  H14R30023  11.755   2.438   4.362  0.3307 -1.1688 -1.1758
  218DOPC  H14S30024  11.677   2.316   4.458  0.7539 -1.6069  2.7763
  218DOPC  C21530025  11.858   2.237   4.355  0.2203  0.6246  0.1274
  218DOPC  H15R30026  11.865   2.147   4.420  0.0690  0.0511 -0.6368
  218DOPC  H15S30027  11.961   2.274   4.335  0.8339 -1.1519 -0.1776
  218DOPC  C21630028  11.785   2.198   4.221  0.2197 -0.8251 -0.6072
  218DOPC  H16R30029  11.777   2.294   4.165  0.3247 -0.5229 -0.1094
  218DOPC  H16S30030  11.680   2.169   4.241  0.9140 -1.7956  2.0415
  218DOPC  C21730031  11.860   2.096   4.136  0.0189 -0.0721  0.4810
  218DOPC  H17R30032  11.864   2.000   4.191  2.9772  0.3271  1.1266
  218DOPC  H17S30033  11.965   2.131   4.124  0.0935 -0.6941 -0.8719
  218DOPC  C21830034  11.787   2.072   4.002 -0.5829  0.5790 -0.5696
  218DOPC  H18R30035  11.823   1.986   3.942 -1.7094 -1.2669  1.2622
  218DOPC  H18S30036  11.784   2.168   3.946  1.2516  1.0892  0.1476
  218DOPC  H18T30037  11.681   2.054   4.032 -0.0229 -0.3209  0.9828
  218DOPC   C3330038  12.236   2.820   5.811  0.2505 -0.1831 -0.5325
  218DOPC   H3X30039  12.341   2.813   5.846  0.1490 -1.8942 -0.5084
  218DOPC   H3Y30040  12.184   2.887   5.884  1.3115  1.5476 -1.3073
  218DOPC   C3430041  12.224   2.879   5.677 -0.1385  0.4037 -0.3020
  218DOPC   H4X30042  12.263   2.808   5.601  0.9401 -1.4280  1.8357
  218DOPC   H4Y30043  12.272   2.979   5.665  0.8768 -0.0404 -0.0415
  218DOPC   C3530044  12.084   2.913   5.640  1.0631  0.2206 -0.5282
  218DOPC   H5X30045  12.034   2.991   5.703  0.1553 -2.6627  2.6037
  218DOPC   H5Y30046  12.026   2.821   5.660 -0.7194  1.4095  0.1182
  218DOPC   C3630047  12.064   2.940   5.491 -0.0099 -1.2032  0.1196
  218DOPC   H6X30048  12.134   3.021   5.464 -0.1434 -0.7482  1.0885
  218DOPC   H6Y30049  12.084   2.851   5.427 -0.5803 -0.6742 -0.8226
  218DOPC   C3730050  11.916   2.973   5.455  0.2078  0.0705 -0.2282
  218DOPC   H7X30051  11.901   2.942   5.349  0.8339  1.3171 -0.6995
  218DOPC   H7Y30052  11.841   2.919   5.517 -0.2447 -0.6310 -1.3569
  218DOPC   C3830053  11.894   3.124   5.447  0.6254 -0.3830 -0.2046
  218DOPC   H8X30054  11.939   3.167   5.539  1.3206 -0.9382 -0.2725
  218DOPC   H8Y30055  11.785   3.141   5.461  0.8761  0.2660  1.1002
  218DOPC   C3930056  11.945   3.198   5.330  0.0847 -0.1824  0.8910
  218DOPC   H9X30057  12.053   3.216   5.338  0.4088 -0.9696 -1.0626
  218DOPC  C31030058  11.876   3.233   5.223  0.2844  0.3185 -0.2776
  218DOPC  H10X30059  11.922   3.318   5.169 -1.7260  2.7220  1.5468
  218DOPC  C31130060  11.724   3.216   5.207  0.5521  0.1805 -0.2448
  218DOPC  H11X30061  11.684   3.272   5.120  0.7719 -0.0501 -0.4952
  218DOPC  H11Y30062  11.672   3.252   5.299  1.4364 -0.3170  0.4645
  218DOPC  C31230063  11.682   3.066   5.192 -0.1797 -0.0697  0.1164
  218DOPC  H12X30064  11.725   3.003   5.272 -0.6806 -2.0072 -1.0681
  218DOPC  H12Y30065  11.720   3.025   5.096  0.2177  1.9711 -0.6491
  218DOPC  C31330066  11.529   3.049   5.197  0.1502  0.0397 -0.0508
  218DOPC  H13X30067  11.496   3.053   5.303 -2.7528  0.2310 -0.8627
  218DOPC  H13Y30068  11.485   3.129   5.134  0.6412  0.6555  0.3868
  218DOPC  C31430069  11.488   2.903   5.154 -0.4235  0.2723 -0.4239
  218DOPC  H14X30070  11.537   2.853   5.067  0.7296  0.2339  0.2308
  218DOPC  H14Y30071  11.503   2.835   5.240 -0.8267  0.5348 -0.1414
  218DOPC  C31530072  11.338   2.899   5.124  0.0080  0.0208 -1.1670
  218DOPC  H15X30073  11.314   2.792   5.111 -0.1954 -0.0488 -0.2540
  218DOPC  H15Y30074  11.321   2.957   5.031  0.4590  1.9663 -0.0919
  218DOPC  C31630075  11.247   2.955   5.238  0.7929 -0.5321  0.1068
  218DOPC  H16X30076  11.260   2.906   5.337 -2.2869  1.4399  1.6423
  218DOPC  H16Y30077  11.272   3.063   5.251  0.1707 -0.2923 -0.6493
  218DOPC  C31730078  11.094   2.930   5.212 -0.7226 -0.3119 -1.3178
  218DOPC  H17X30079  11.094   2.819   5.215  0.6515 -0.3317 -1.1292
  218DOPC  H17Y30080  11.057   2.971   5.309 -1.3641 -2.2883 -0.6778
  218DOPC  C31830081  11.025   2.993   5.095  0.2139  0.3723 -0.3441
  218DOPC  H18X30082  11.057   2.976   4.990 -1.9366  1.6534 -1.2700
  218DOPC  H18Y30083  10.916   2.984   5.116 -0.6937  2.1089 -3.6149
  218DOPC  H18Z30084  11.039   3.101   5.113  0.9672  0.0314  1.3462
  219DOPC     N30085   8.601  11.549   6.657  0.3754  0.2661 -0.1192
  219DOPC   C1230086   8.737  11.594   6.701  0.0988  0.3010  0.5948
  219DOPC  H12A30087   8.796  11.508   6.729  0.4748 -0.1591 -1.4648
  219DOPC  H12B30088   8.724  11.649   6.793 -2.2018  0.8260  0.0318
  219DOPC   C1330089   8.541  11.469   6.768 -0.2003 -0.9609 -0.0334
  219DOPC  H13A30090   8.443  11.435   6.740 -1.6441  2.3382  0.5271
  219DOPC  H13B30091   8.607  11.384   6.779 -0.8484 -1.9195 -2.7398
  219DOPC  H13C30092   8.537  11.528   6.859  0.7010  0.8146 -1.0790
  219DOPC   C1430093   8.607  11.459   6.537 -0.0929  0.3578  0.0871
  219DOPC  H14A30094   8.651  11.364   6.564 -0.9880 -0.5785 -1.6244
  219DOPC  H14B30095   8.506  11.448   6.499  0.6199 -0.7330 -1.5585
  219DOPC  H14C30096   8.682  11.507   6.476 -0.2583  1.3238  0.6157
  219DOPC   C1530097   8.515  11.663   6.625  0.4463  0.1075  0.0311
  219DOPC  H15A30098   8.409  11.643   6.629  0.5607 -0.4659  0.2792
  219DOPC  H15B30099   8.545  11.701   6.528 -0.4887  0.9425  0.0537
  219DOPC  H15C30100   8.537  11.753   6.681  3.3763 -0.5500  0.0883
  219DOPC   C1130101   8.819  11.686   6.604 -0.3096 -0.7929  0.9667
  219DOPC  H11A30102   8.755  11.773   6.578  0.5815  0.0223  1.4529
  219DOPC  H11B30103   8.911  11.728   6.651  0.7484 -0.3133 -1.3758
  219DOPC     P30104   8.972  11.521   6.490  0.0721  0.1346  0.0204
  219DOPC   O1330105   8.920  11.404   6.562  0.3507  0.1269 -0.6966
  219DOPC   O1430106   9.101  11.580   6.538 -0.0552  0.1749 -0.2754
  219DOPC   O1230107   8.853  11.620   6.479  0.2121 -0.5798 -0.8317
  219DOPC   O1130108   8.985  11.464   6.343  0.4677  0.0866 -0.4177
  219DOPC    C130109   9.056  11.562   6.265 -0.1133 -0.3085 -0.4060
  219DOPC    HA30110   9.147  11.605   6.312 -1.0821  1.4553 -0.0847
  219DOPC    HB30111   8.994  11.650   6.236 -0.6906 -0.9080 -1.0228
  219DOPC    C230112   9.100  11.500   6.132 -0.4666  0.9081  0.7030
  219DOPC    HS30113   9.135  11.397   6.157 -0.3177  0.4714 -1.1995
  219DOPC   O2130114   9.205  11.578   6.073 -0.0601 -0.3156  0.2890
  219DOPC   C2130115   9.262  11.507   5.970 -0.2492 -0.1621 -0.1364
  219DOPC   O2230116   9.241  11.384   5.958 -0.4298 -0.4963 -0.0736
  219DOPC   C2230117   9.355  11.597   5.883  0.2013 -0.3815  0.3250
  219DOPC   H2R30118   9.390  11.680   5.947 -1.7292  1.2094 -0.5977
  219DOPC   H2S30119   9.291  11.648   5.808 -0.3366 -0.8371  0.4638
  219DOPC    C330120   8.978  11.477   6.036  0.0508  0.5525  0.6312
  219DOPC    HX30121   8.908  11.405   6.084  2.0063 -0.0789  2.7519
  219DOPC    HY30122   9.017  11.425   5.946  1.8314  0.7541  1.2413
  219DOPC   O3130123   8.906  11.598   6.014  0.0922 -0.4639 -0.7084
  219DOPC   C3130124   8.922  11.666   5.903  0.1108  0.0989 -0.9104
  219DOPC   O3230125   9.001  11.643   5.817  0.7613  0.5855  0.4883
  219DOPC   C3230126   8.819  11.780   5.904  0.6064  0.1592  0.3388
  219DOPC   H2X30127   8.750  11.770   5.990 -0.6722  0.1690 -0.6563
  219DOPC   H2Y30128   8.880  11.873   5.914  1.2354 -0.2880  0.7330
  219DOPC   C2330129   9.480  11.530   5.821  0.5706  0.5209  0.4000
  219DOPC   H3R30130   9.538  11.463   5.890  0.1028  0.6841  0.9606
  219DOPC   H3S30131   9.545  11.606   5.774 -1.8600  0.8167 -2.8101
  219DOPC   C2430132   9.441  11.450   5.697 -0.3839  0.0536 -0.5924
  219DOPC   H4R30133   9.397  11.508   5.613 -1.3625 -2.2250 -1.7442
  219DOPC   H4S30134   9.378  11.368   5.738  1.5074 -1.0010  0.3306
  219DOPC   C2530135   9.568  11.384   5.635  0.0771 -0.0086 -0.2085
  219DOPC   H5R30136   9.630  11.340   5.716  1.8368  0.3661 -1.2956
  219DOPC   H5S30137   9.630  11.458   5.580 -0.4488 -0.6874 -1.7745
  219DOPC   C2630138   9.534  11.272   5.536 -0.5540  0.8621  0.3770
  219DOPC   H6R30139   9.479  11.193   5.592 -1.2586 -1.6232 -3.4045
  219DOPC   H6S30140   9.625  11.221   5.499 -1.5841  0.1281 -1.2743
  219DOPC   C2730141   9.455  11.318   5.414 -0.7633 -0.1795  0.1545
  219DOPC   H7R30142   9.499  11.415   5.384 -0.7188 -0.2109  0.1167
  219DOPC   H7S30143   9.347  11.337   5.433 -1.5551 -3.8740  0.1642
  219DOPC   C2830144   9.480  11.229   5.295 -0.2393 -0.0888  0.0728
  219DOPC   H8R30145   9.586  11.204   5.276 -0.4239 -1.3671  0.5894
  219DOPC   H8S30146   9.451  11.292   5.208  0.6514  0.1861 -0.0266
  219DOPC   C2930147   9.403  11.101   5.321 -0.2436 -0.0444  0.2073
  219DOPC   H9R30148   9.450  11.034   5.394 -0.8363  0.6489  1.2621
  219DOPC  C21030149   9.290  11.066   5.262  0.3894 -0.4916  0.2003
  219DOPC  H10R30150   9.229  10.986   5.307 -4.0880  2.6799  0.4221
  219DOPC  C21130151   9.208  11.137   5.162 -0.0554 -1.3854  0.3998
  219DOPC  H11R30152   9.257  11.226   5.118 -0.3007 -1.5401 -0.1897
  219DOPC  H11S30153   9.113  11.163   5.212 -0.0677  0.0943 -0.3482
  219DOPC  C21230154   9.188  11.053   5.038  0.9368 -0.1401  0.0813
  219DOPC  H12R30155   9.127  10.963   5.061  0.9238  0.0222  0.7078
  219DOPC  H12S30156   9.282  11.021   4.988  0.6592 -0.9261  0.0516
  219DOPC  C21330157   9.083  11.128   4.939 -0.5811  0.0005 -0.1055
  219DOPC  H13R30158   9.120  11.232   4.925  0.7874 -0.5424 -0.6041
  219DOPC  H13S30159   8.985  11.134   4.992  0.4675  1.6684  1.7764
  219DOPC  C21430160   9.067  11.049   4.810  0.4413 -0.3437  0.2662
  219DOPC  H14R30161   9.028  10.948   4.834  2.5723 -1.0158  1.1698
  219DOPC  H14S30162   9.167  11.028   4.768  0.0234  1.6947 -1.9589
  219DOPC  C21530163   9.004  11.130   4.691  0.9735 -0.2686 -0.6656
  219DOPC  H15R30164   9.046  11.233   4.689 -2.8190  1.5162  1.5407
  219DOPC  H15S30165   8.898  11.146   4.717  1.0191 -0.9718 -0.0259
  219DOPC  C21630166   9.014  11.071   4.553  0.0974 -0.0075 -0.0344
  219DOPC  H16R30167   8.972  10.968   4.561 -1.0320  0.3910 -0.6866
  219DOPC  H16S30168   9.117  11.063   4.513  0.1740  0.8463 -0.0319
  219DOPC  C21730169   8.915  11.126   4.445 -0.4565 -0.6014  0.0882
  219DOPC  H17R30170   8.951  11.225   4.409 -2.1642  0.5732  1.4195
  219DOPC  H17S30171   8.811  11.150   4.476 -0.1121  2.9499 -1.0403
  219DOPC  C21830172   8.901  11.044   4.318 -0.7135 -0.6344  0.1760
  219DOPC  H18R30173   8.827  11.094   4.252 -0.3756  1.5656  1.3401
  219DOPC  H18S30174   8.857  10.946   4.345 -2.4700  0.4577  1.5509
  219DOPC  H18T30175   9.004  11.018   4.287 -0.8667 -2.4660  1.0424
  219DOPC   C3330176   8.740  11.777   5.772  0.3948  0.0444 -0.4205
  219DOPC   H3X30177   8.650  11.843   5.777  0.3874  0.1131 -1.2897
  219DOPC   H3Y30178   8.706  11.672   5.761  2.0273 -0.4261 -1.2558
  219DOPC   C3430179   8.829  11.824   5.658  0.2434  0.3804 -0.6343
  219DOPC   H4X30180   8.923  11.767   5.646  0.3694  0.4947 -0.2052
  219DOPC   H4Y30181   8.862  11.928   5.681 -0.3093  0.1730  1.2812
  219DOPC   C3530182   8.751  11.816   5.515 -0.0229 -0.1339  0.0422
  219DOPC   H5X30183   8.669  11.888   5.534  0.9390  0.5498  1.9658
  219DOPC   H5Y30184   8.709  11.715   5.498 -1.0229  0.2873 -0.0529
  219DOPC   C3630185   8.839  11.866   5.398  0.2266  1.0369  0.4497
  219DOPC   H6X30186   8.906  11.947   5.433  1.5183  0.2172 -0.0593
  219DOPC   H6Y30187   8.913  11.786   5.378 -0.1669  0.6382  0.5740
  219DOPC   C3730188   8.765  11.895   5.271 -0.0176 -0.0095  0.1424
  219DOPC   H7X30189   8.679  11.825   5.264 -1.9642  2.2330  0.5377
  219DOPC   H7Y30190   8.718  11.995   5.281 -1.4196 -0.7229  0.9718
  219DOPC   C3830191   8.842  11.883   5.138  0.3899  0.4562 -0.3710
  219DOPC   H8X30192   8.768  11.872   5.055  0.8144  0.6205 -0.7739
  219DOPC   H8Y30193   8.892  11.785   5.137 -2.5254 -1.1624 -0.1319
  219DOPC   C3930194   8.945  11.989   5.117 -0.4209  0.5315 -0.3977
  219DOPC   H9X30195   9.030  11.985   5.187 -1.5450  0.6568  1.0039
  219DOPC  C31030196   8.968  12.071   5.009  0.5416  0.0767 -0.2947
  219DOPC  H10X30197   9.056  12.135   4.998  0.0676  0.4464 -2.2768
  219DOPC  C31130198   8.865  12.091   4.898 -0.1538  0.3211  0.2020
  219DOPC  H11X30199   8.829  12.195   4.913  2.7121  1.1796  1.9952
  219DOPC  H11Y30200   8.772  12.031   4.905  0.0726 -0.1116 -0.3648
  219DOPC  C31230201   8.926  12.079   4.760 -0.1452  0.3436 -0.0703
  219DOPC  H12X30202   8.973  11.979   4.759  2.4813  1.4927  0.5087
  219DOPC  H12Y30203   9.011  12.148   4.739  1.1722 -1.5894 -1.4510
  219DOPC  C31330204   8.834  12.093   4.649  0.5200  0.1356  0.8251
  219DOPC  H13X30205   8.748  12.022   4.661 -0.5732  1.4194  0.7596
  219DOPC  H13Y30206   8.789  12.193   4.636  1.0478  0.2400 -0.3264
  219DOPC  C31430207   8.902  12.064   4.512  0.8324 -0.1967  0.6031
  219DOPC  H14X30208   8.980  12.137   4.483  2.1309 -2.1979 -1.1628
  219DOPC  H14Y30209   8.950  11.964   4.517 -0.1987 -0.7045  0.6836
  219DOPC  C31530210   8.816  12.056   4.385  0.7793  0.1004  0.4348
  219DOPC  H15X30211   8.869  12.095   4.295 -0.1889  2.5638  0.8525
  219DOPC  H15Y30212   8.727  12.121   4.397  1.2048  0.8420 -0.3313
  219DOPC  C31630213   8.761  11.915   4.357  0.2824 -0.3026  0.0542
  219DOPC  H16X30214   8.836  11.833   4.356  1.0004  0.3366 -0.2659
  219DOPC  H16Y30215   8.693  11.908   4.444  0.0333  3.1429  0.2799
  219DOPC  C31730216   8.684  11.912   4.220  0.4126 -0.6380 -0.2054
  219DOPC  H17X30217   8.607  11.832   4.225 -0.7120  0.4350 -0.0681
  219DOPC  H17Y30218   8.635  12.010   4.205  0.1640 -0.8337 -0.6890
  219DOPC  C31830219   8.771  11.888   4.105 -0.2721  0.1201 -0.2796
  219DOPC  H18X30220   8.843  11.972   4.095 -1.5084  1.7297  2.9686
  219DOPC  H18Y30221   8.829  11.793   4.116  1.3676  1.0606 -0.3904
  219DOPC  H18Z30222   8.707  11.870   4.016 -1.1426 -1.4848  0.6264
  220DOPC     N30223   7.460   1.877   6.408 -0.2876 -0.7767  0.2630
  220DOPC   C1230224   7.431   1.943   6.546  0.2036  0.5569  0.1380
  220DOPC  H12A30225   7.525   1.974   6.587  0.1030  1.3400 -0.2154
  220DOPC  H12B30226   7.382   1.872   6.611 -1.1405  0.4795 -0.8946
  220DOPC   C1330227   7.338   1.882   6.310  0.6251  0.0514 -0.2556
  220DOPC  H13A30228   7.373   1.851   6.213  2.4935  0.2257  0.3109
  220DOPC  H13B30229   7.256   1.827   6.354  1.9515 -0.8864  1.1513
  220DOPC  H13C30230   7.301   1.983   6.313  3.3311  1.1627 -1.4607
  220DOPC   C1430231   7.492   1.731   6.433  0.0069 -0.7902  0.8496
  220DOPC  H14A30232   7.400   1.681   6.463 -0.4689 -1.0127 -0.8946
  220DOPC  H14B30233   7.527   1.670   6.351 -0.2624 -1.8234  1.4820
  220DOPC  H14C30234   7.552   1.720   6.522 -1.1027 -1.7280  1.5207
  220DOPC   C1530235   7.576   1.947   6.341  0.4926 -0.0255 -0.2508
  220DOPC  H15A30236   7.595   1.898   6.246 -2.8962  0.8350 -1.5210
  220DOPC  H15B30237   7.660   1.951   6.408  0.0261 -0.9901  0.4255
  220DOPC  H15C30238   7.552   2.048   6.311  0.2505 -0.6729 -2.4318
  220DOPC   C1130239   7.338   2.061   6.537 -0.6626 -0.4845 -0.5391
  220DOPC  H11A30240   7.244   2.046   6.480 -0.5895 -1.9782 -0.3135
  220DOPC  H11B30241   7.304   2.091   6.638 -3.5047  2.6262 -2.2185
  220DOPC     P30242   7.345   2.291   6.414  0.2191  0.1899  0.0713
  220DOPC   O1330243   7.318   2.391   6.525 -0.5504 -0.5183 -0.3523
  220DOPC   O1430244   7.229   2.252   6.329  0.0388 -0.2068 -0.0530
  220DOPC   O1230245   7.418   2.170   6.482 -0.9750  0.5916  0.4828
  220DOPC   O1130246   7.461   2.349   6.324  0.5096 -0.1802  0.2723
  220DOPC    C130247   7.590   2.372   6.369 -0.4981 -0.3071 -0.0255
  220DOPC    HA30248   7.630   2.298   6.442  1.1528 -1.2431 -1.7939
  220DOPC    HB30249   7.590   2.467   6.427 -0.4956 -0.4665  0.2373
  220DOPC    C230250   7.693   2.382   6.258  0.1039 -0.3472  0.1732
  220DOPC    HS30251   7.682   2.481   6.207  0.0693 -0.6807 -0.4759
  220DOPC   O2130252   7.673   2.275   6.159 -0.4534  0.2538  0.2408
  220DOPC   C2130253   7.624   2.311   6.043  0.0888 -0.2007 -0.2430
  220DOPC   O2230254   7.603   2.428   6.007 -0.4041  0.8133  0.4548
  220DOPC   C2230255   7.574   2.193   5.971 -0.1646  0.2511 -0.2288
  220DOPC   H2R30256   7.487   2.163   6.033 -1.7060  1.1262 -1.8764
  220DOPC   H2S30257   7.651   2.115   5.956  0.7864  1.3961 -1.5246
  220DOPC    C330258   7.835   2.376   6.314 -0.1523 -0.1008  0.8162
  220DOPC    HX30259   7.849   2.292   6.386  0.1945 -1.1394 -0.4290
  220DOPC    HY30260   7.842   2.472   6.370  0.3909  0.1555  0.3262
  220DOPC   O3130261   7.938   2.375   6.199  0.7132  0.6829 -0.1666
  220DOPC   C3130262   8.013   2.259   6.201 -0.2159 -0.5140 -0.4278
  220DOPC   O3230263   8.002   2.173   6.286 -0.3440 -0.0850 -0.2799
  220DOPC   C3230264   8.123   2.259   6.099 -0.1472 -0.6697  0.1824
  220DOPC   H2X30265   8.219   2.280   6.151 -0.3803 -1.6374  1.0340
  220DOPC   H2Y30266   8.134   2.155   6.061 -1.5752 -0.4671 -0.8603
  220DOPC   C2330267   7.527   2.215   5.824  0.0175 -0.3421 -0.5090
  220DOPC   H3R30268   7.515   2.117   5.773 -0.7285 -0.7688  0.4641
  220DOPC   H3S30269   7.608   2.271   5.771  0.4565  2.7673  3.0251
  220DOPC   C2430270   7.394   2.294   5.797 -0.3295  0.3844  0.0502
  220DOPC   H4R30271   7.381   2.314   5.688  0.8346 -0.0384 -0.1821
  220DOPC   H4S30272   7.397   2.387   5.858 -2.8197  0.8174 -0.3598
  220DOPC   C2530273   7.258   2.232   5.832  0.1842 -0.8144  0.2529
  220DOPC   H5R30274   7.172   2.298   5.807 -1.5541 -3.2938 -0.8143
  220DOPC   H5S30275   7.251   2.197   5.938  2.1049  0.2420  0.7802
  220DOPC   C2630276   7.229   2.112   5.746  1.0328 -0.4373 -0.5183
  220DOPC   H6R30277   7.299   2.033   5.780  0.4137  0.1922  2.5177
  220DOPC   H6S30278   7.253   2.135   5.640  0.6878 -1.0323 -0.7327
  220DOPC   C2730279   7.088   2.056   5.766  0.5606  0.5857 -0.0229
  220DOPC   H7R30280   7.022   2.141   5.737  0.1047  0.4565  0.6073
  220DOPC   H7S30281   7.070   2.038   5.874 -1.2279  1.0855 -0.2061
  220DOPC   C2830282   7.043   1.945   5.671  0.1045  0.0420 -0.1388
  220DOPC   H8R30283   7.050   1.989   5.570 -2.5206 -1.9839 -1.3313
  220DOPC   H8S30284   6.933   1.948   5.682  0.0119  0.3249 -1.0621
  220DOPC   C2930285   7.100   1.807   5.693 -0.3363 -0.4613 -0.0949
  220DOPC   H9R30286   7.134   1.795   5.797 -0.0852 -0.0691 -0.1310
  220DOPC  C21030287   7.135   1.715   5.601  0.3484  0.2519  0.6321
  220DOPC  H10R30288   7.189   1.623   5.632  0.5115 -0.5729 -1.8407
  220DOPC  C21130289   7.090   1.705   5.454  0.1027 -0.2700 -0.1528
  220DOPC  H11R30290   7.174   1.674   5.388  0.6258  0.3176  0.2312
  220DOPC  H11S30291   7.046   1.800   5.419  0.8162  0.0220 -0.2697
  220DOPC  C21230292   6.983   1.602   5.439 -0.1809 -0.3291  0.8318
  220DOPC  H12R30293   6.904   1.610   5.517 -0.5534 -4.0994  0.9930
  220DOPC  H12S30294   7.022   1.498   5.439  0.4138 -0.1856 -2.1906
  220DOPC  C21330295   6.917   1.606   5.296  0.0840 -0.3412 -0.3272
  220DOPC  H13R30296   7.005   1.611   5.229 -1.1025  0.1560 -1.9000
  220DOPC  H13S30297   6.872   1.707   5.290 -0.0120 -0.1871  2.1179
  220DOPC  C21430298   6.839   1.483   5.258 -0.0184 -0.4591 -0.3540
  220DOPC  H14R30299   6.755   1.467   5.329  1.7293  1.7052  2.3870
  220DOPC  H14S30300   6.916   1.404   5.268  1.3635  1.0540  1.6714
  220DOPC  C21530301   6.785   1.495   5.110  0.4003  0.8217  0.1012
  220DOPC  H15R30302   6.717   1.582   5.097 -1.6143 -0.4886  1.3958
  220DOPC  H15S30303   6.721   1.405   5.102  0.7695  0.5016  0.7124
  220DOPC  C21630304   6.898   1.486   5.006 -0.3447 -0.2163  0.1175
  220DOPC  H16R30305   6.964   1.398   5.024 -1.3463 -0.9208  0.4409
  220DOPC  H16S30306   6.959   1.576   5.027  3.2736 -2.2776 -0.7195
  220DOPC  C21730307   6.865   1.492   4.856  0.1259  0.5103 -0.4076
  220DOPC  H17R30308   6.964   1.521   4.813  0.8229  1.2834  1.5905
  220DOPC  H17S30309   6.783   1.566   4.845 -2.4164 -2.0880 -0.1254
  220DOPC  C21830310   6.816   1.362   4.799 -0.4581  0.2269  0.4507
  220DOPC  H18R30311   6.726   1.320   4.849 -1.1210  0.6824 -0.3471
  220DOPC  H18S30312   6.897   1.286   4.806  1.2617  1.9024 -0.4007
  220DOPC  H18T30313   6.787   1.385   4.695 -1.6158 -0.2755  0.6525
  220DOPC   C3330314   8.111   2.355   5.974  0.3183 -0.9647  0.1054
  220DOPC   H3X30315   8.200   2.354   5.908 -0.4318 -0.9013 -0.9346
  220DOPC   H3Y30316   8.100   2.462   6.004 -0.7045 -1.3070  1.0184
  220DOPC   C3430317   7.997   2.315   5.876  0.2882  0.3478 -0.3887
  220DOPC   H4X30318   7.952   2.391   5.809  0.6372  0.3451 -0.6240
  220DOPC   H4Y30319   7.917   2.272   5.940  0.7869  0.3021  0.2198
  220DOPC   C3530320   8.034   2.194   5.782  0.2581  0.2139  0.0458
  220DOPC   H5X30321   8.055   2.107   5.848 -1.0192 -0.4606 -0.3923
  220DOPC   H5Y30322   8.126   2.222   5.727 -0.4460  1.0375 -0.7315
  220DOPC   C3630323   7.922   2.160   5.683  0.6905  1.2942 -0.0546
  220DOPC   H6X30324   7.841   2.112   5.741  0.1177  0.7622 -1.2530
  220DOPC   H6Y30325   7.882   2.242   5.620  2.1008  1.6091 -0.5767
  220DOPC   C3730326   7.973   2.058   5.584 -0.3966 -0.0993 -0.3915
  220DOPC   H7X30327   8.060   2.108   5.536 -0.5456  0.4297 -0.1138
  220DOPC   H7Y30328   8.011   1.983   5.656  0.7590  1.3513  0.5553
  220DOPC   C3830329   7.883   2.006   5.482  0.1044  0.1816 -0.1944
  220DOPC   H8X30330   7.846   2.094   5.426 -0.4312  0.2504  0.2567
  220DOPC   H8Y30331   7.795   1.948   5.517  1.1383 -1.2116  0.1826
  220DOPC   C3930332   7.964   1.929   5.388 -0.7010 -0.3856  0.1635
  220DOPC   H9X30333   8.070   1.955   5.380 -0.7809 -0.3679 -1.1779
  220DOPC  C31030334   7.929   1.823   5.307 -0.3078 -0.4694 -0.4782
  220DOPC  H10X30335   8.008   1.776   5.246 -0.1776 -0.3700 -0.3873
  220DOPC  C31130336   7.796   1.769   5.282 -0.2881 -0.5701 -0.0143
  220DOPC  H11X30337   7.740   1.798   5.374 -0.6539  0.0803 -0.4317
  220DOPC  H11Y30338   7.799   1.658   5.289  0.5239 -0.4948  1.2185
  220DOPC  C31230339   7.727   1.810   5.156  0.2542  0.3743 -0.0152
  220DOPC  H12X30340   7.621   1.775   5.151  0.8645 -1.4186 -3.3235
  220DOPC  H12Y30341   7.781   1.770   5.067 -1.1729  1.8982 -1.6466
  220DOPC  C31330342   7.716   1.960   5.140  0.5022  0.1965 -0.0053
  220DOPC  H13X30343   7.684   2.012   5.232 -3.8754 -0.8316 -0.7397
  220DOPC  H13Y30344   7.821   1.983   5.110 -0.2614  1.2499 -2.0849
  220DOPC  C31430345   7.618   2.004   5.035 -0.6559 -0.5789 -0.4083
  220DOPC  H14X30346   7.618   1.939   4.945 -1.5850 -0.3129 -0.6125
  220DOPC  H14Y30347   7.514   1.989   5.070  0.0646 -0.9981  1.7162
  220DOPC  C31530348   7.655   2.144   4.981 -0.1149  0.5224 -0.5645
  220DOPC  H15X30349   7.753   2.148   4.929  0.0985 -1.9126 -0.4560
  220DOPC  H15Y30350   7.651   2.214   5.067  0.3449 -2.6056  2.2312
  220DOPC  C31630351   7.562   2.179   4.863 -0.3878  0.1334  0.0216
  220DOPC  H16X30352   7.563   2.097   4.788 -0.9263 -0.7981  0.9956
  220DOPC  H16Y30353   7.458   2.175   4.902  0.3648 -1.2919  2.0607
  220DOPC  C31730354   7.602   2.311   4.792 -0.1793  0.1228 -0.0713
  220DOPC  H17X30355   7.549   2.392   4.846 -1.4573  0.0367 -1.1287
  220DOPC  H17Y30356   7.711   2.327   4.804 -0.1191 -0.9364  0.9430
  220DOPC  C31830357   7.579   2.326   4.644  0.7197  0.3979  0.9655
  220DOPC  H18X30358   7.470   2.310   4.630  0.5061  1.6487  1.1491
  220DOPC  H18Y30359   7.605   2.428   4.612 -1.6877  1.3878  1.8995
  220DOPC  H18Z30360   7.640   2.247   4.594  0.1272  0.4991  0.0548
  221DOPC     N30361   0.605  10.761   6.278 -0.9262  0.2332  0.3922
  221DOPC   C1230362   0.598  10.872   6.174  0.5111  0.2771 -0.1156
  221DOPC  H12A30363   0.632  10.835   6.079 -2.8330 -0.7394 -1.0465
  221DOPC  H12B30364   0.672  10.942   6.210  0.7634 -0.7118  1.3578
  221DOPC   C1330365   0.618  10.824   6.410  0.4972  0.2558  0.0419
  221DOPC  H13A30366   0.710  10.877   6.429 -0.1776  1.7989 -0.8213
  221DOPC  H13B30367   0.530  10.886   6.424 -0.0085 -0.1955 -1.0066
  221DOPC  H13C30368   0.615  10.749   6.488  0.5821  1.0892  0.8655
  221DOPC   C1430369   0.735  10.682   6.257 -0.0220 -0.0109  0.3745
  221DOPC  H14A30370   0.812  10.755   6.237  1.0176 -1.1966 -0.0325
  221DOPC  H14B30371   0.758  10.627   6.346  1.6736  0.0293 -0.0173
  221DOPC  H14C30372   0.729  10.607   6.180 -1.5859  0.4956 -0.0504
  221DOPC   C1530373   0.494  10.661   6.273  0.5092  0.0185 -0.0547
  221DOPC  H15A30374   0.404  10.710   6.306 -0.1692 -1.5090  0.4396
  221DOPC  H15B30375   0.501  10.571   6.332 -4.5714 -0.0572  0.9069
  221DOPC  H15C30376   0.470  10.626   6.174 -0.0093 -2.1126  0.7689
  221DOPC   C1130377   0.457  10.940   6.152 -0.7834 -0.1333 -0.8295
  221DOPC  H11A30378   0.461  10.995   6.056  2.2057 -0.0664 -0.7780
  221DOPC  H11B30379   0.385  10.856   6.146  0.5337 -1.9809  3.9385
  221DOPC     P30380   0.444  11.166   6.294 -0.5267 -0.3498 -0.0790
  221DOPC   O1330381   0.536  11.222   6.192 -0.2169 -0.0640 -0.2623
  221DOPC   O1430382   0.485  11.184   6.433  0.0281 -0.3566 -0.3829
  221DOPC   O1230383   0.413  11.013   6.267  0.4748 -0.3724 -0.5227
  221DOPC   O1130384   0.311  11.248   6.284 -0.2892 -0.6532 -0.2770
  221DOPC    C130385   0.210  11.193   6.192 -0.0325 -0.4770 -0.3867
  221DOPC    HA30386   0.113  11.232   6.229  0.7964  1.6327 -0.2807
  221DOPC    HB30387   0.204  11.082   6.192  1.8763 -0.6214 -1.2553
  221DOPC    C230388   0.222  11.240   6.042  0.3843 -0.1864 -0.5502
  221DOPC    HS30389   0.120  11.256   6.001 -0.2628  0.6898  1.3209
  221DOPC   O2130390   0.287  11.141   5.968 -0.2604  0.0669  0.3284
  221DOPC   C2130391   0.207  11.049   5.905  0.2444 -0.0382  0.5427
  221DOPC   O2230392   0.086  11.045   5.923  0.3814  0.3867  0.5112
  221DOPC   C2230393   0.289  10.963   5.805  0.2438 -0.4443  0.4285
  221DOPC   H2R30394   0.317  10.865   5.849  1.4100 -0.6720 -0.7654
  221DOPC   H2S30395   0.383  11.012   5.772  1.0051 -0.6017  2.2495
  221DOPC    C330396   0.286  11.383   6.026  0.0784  1.0057 -1.1903
  221DOPC    HX30397   0.392  11.370   6.057 -0.0300  0.5963 -0.9800
  221DOPC    HY30398   0.242  11.453   6.100 -0.7339 -1.3672  0.7036
  221DOPC   O3130399   0.274  11.432   5.894 -0.3036 -0.4402 -0.5393
  221DOPC   C3130400   0.368  11.414   5.809  0.0066  0.0367  0.0704
  221DOPC   O3230401   0.478  11.365   5.830 -0.0406 -0.4127 -0.1745
  221DOPC   C3230402   0.330  11.471   5.672 -0.3772 -0.2414  0.8400
  221DOPC   H2X30403   0.390  11.562   5.649 -1.8793  0.2615 -1.4361
  221DOPC   H2Y30404   0.359  11.390   5.601  1.0491  0.0628  1.0368
  221DOPC   C2330405   0.207  10.933   5.677 -0.8540  0.1994 -0.3036
  221DOPC   H3R30406   0.106  10.895   5.703 -0.3330 -1.6874 -0.8354
  221DOPC   H3S30407   0.259  10.856   5.615 -0.2235  1.2492 -1.1215
  221DOPC   C2430408   0.199  11.038   5.571 -0.0030  0.5044 -0.1031
  221DOPC   H4R30409   0.286  11.107   5.568 -2.0616  3.2215 -1.2227
  221DOPC   H4S30410   0.108  11.100   5.580 -0.5902 -0.4926  1.0336
  221DOPC   C2530411   0.181  10.979   5.424  0.5189  0.1932  0.1221
  221DOPC   H5R30412   0.084  10.925   5.423  1.0320 -0.8507 -2.7991
  221DOPC   H5S30413   0.262  10.907   5.399  0.8656  0.1236  1.3683
  221DOPC   C2630414   0.163  11.087   5.320 -0.1576 -0.3727  0.5233
  221DOPC   H6R30415   0.239  11.167   5.332 -0.3058 -0.4245  2.0624
  221DOPC   H6S30416   0.061  11.132   5.327 -0.6835 -1.5539  0.6646
  221DOPC   C2730417   0.169  11.035   5.170  0.2578 -0.3528  0.8264
  221DOPC   H7R30418   0.077  10.978   5.144 -1.4904  2.5593  0.2071
  221DOPC   H7S30419   0.251  10.960   5.167 -0.7723 -1.4820 -1.1934
  221DOPC   C2830420   0.197  11.141   5.060 -0.6262 -0.0834 -0.4706
  221DOPC   H8R30421   0.244  11.090   4.973  1.2896 -4.7232  2.8506
  221DOPC   H8S30422   0.269  11.208   5.111 -2.1399  1.5820 -0.4405
  221DOPC   C2930423   0.074  11.221   5.033  0.7277  0.8488  0.4799
  221DOPC   H9R30424   0.079  11.320   5.081  1.9530  1.0663 -0.0730
  221DOPC  C21030425  -0.035  11.183   4.969  0.5598 -0.0674 -0.6035
  221DOPC  H10R30426  -0.108  11.261   4.943  1.0846  0.7464  0.2984
  221DOPC  C21130427  -0.057  11.040   4.911  0.9056  0.3633 -0.2221
  221DOPC  H11R30428  -0.142  10.998   4.969  0.3027  3.0455  0.9581
  221DOPC  H11S30429   0.025  10.964   4.915  1.5304  1.0161 -0.5024
  221DOPC  C21230430  -0.074  11.046   4.763  1.3642  0.1965  0.5221
  221DOPC  H12R30431  -0.161  11.106   4.729  0.5586 -1.1971  0.0176
  221DOPC  H12S30432  -0.082  10.945   4.717 -2.3244  1.0146 -0.9707
  221DOPC  C21330433   0.039  11.121   4.683 -0.1521 -0.5081 -0.1534
  221DOPC  H13R30434   0.133  11.065   4.704 -0.4414 -0.8862  0.1666
  221DOPC  H13S30435   0.060  11.224   4.718 -0.1178  0.3872 -2.6586
  221DOPC  C21430436   0.026  11.137   4.528  0.5229  0.2496  0.0976
  221DOPC  H14R30437  -0.065  11.201   4.520 -1.4418 -2.5078 -0.8920
  221DOPC  H14S30438   0.006  11.035   4.490  1.1946  0.7525 -1.7382
  221DOPC  C21530439   0.150  11.205   4.465 -0.2623  0.1153  0.7755
  221DOPC  H15R30440   0.192  11.283   4.532 -0.1274  1.0064 -0.3169
  221DOPC  H15S30441   0.126  11.257   4.370  5.1813 -2.9547 -2.8312
  221DOPC  C21630442   0.258  11.100   4.432  0.5878 -0.4293 -0.9941
  221DOPC  H16R30443   0.219  11.022   4.364 -0.1957  0.6911 -1.8659
  221DOPC  H16S30444   0.273  11.039   4.523 -1.3240  1.9466  1.0658
  221DOPC  C21730445   0.387  11.160   4.372  0.3604 -0.5181  0.4642
  221DOPC  H17R30446   0.460  11.078   4.354 -1.3141 -1.8387 -0.7041
  221DOPC  H17S30447   0.433  11.235   4.440 -1.1857  1.7040 -0.8269
  221DOPC  C21830448   0.364  11.232   4.230  0.4016  0.2493 -0.1389
  221DOPC  H18R30449   0.330  11.151   4.163 -2.4257  0.2803  1.1401
  221DOPC  H18S30450   0.455  11.280   4.188  0.6787  1.6341  1.8747
  221DOPC  H18T30451   0.282  11.306   4.239 -2.2083 -2.4282 -0.4886
  221DOPC   C3330452   0.183  11.507   5.655 -0.2034 -0.4583  0.8414
  221DOPC   H3X30453   0.158  11.586   5.729  1.8287  0.3520  0.7437
  221DOPC   H3Y30454   0.121  11.419   5.680  0.9336 -1.7910 -0.7935
  221DOPC   C3430455   0.148  11.564   5.519 -0.2529 -0.4896 -0.2921
  221DOPC   H4X30456   0.179  11.494   5.439  1.1887  0.2341 -0.3977
  221DOPC   H4Y30457   0.216  11.651   5.511 -0.6877 -0.2910 -2.2018
  221DOPC   C3530458   0.007  11.607   5.500  0.5740 -0.2240 -0.9436
  221DOPC   H5X30459  -0.007  11.642   5.396 -0.9864  0.9320 -0.3787
  221DOPC   H5Y30460  -0.009  11.700   5.559 -1.5432  0.2020 -2.0917
  221DOPC   C3630461  -0.104  11.509   5.548  0.1966  0.1569 -0.4230
  221DOPC   H6X30462  -0.089  11.499   5.657  1.6295  0.8937 -0.5363
  221DOPC   H6Y30463  -0.200  11.558   5.520  0.8776  0.3589 -2.6037
  221DOPC   C3730464  -0.115  11.366   5.495  0.1754 -0.2202 -0.4161
  221DOPC   H7X30465  -0.024  11.311   5.527  1.4940  2.7555  1.3876
  221DOPC   H7Y30466  -0.200  11.314   5.543  0.9542 -0.6571  0.5305
  221DOPC   C3830467  -0.109  11.351   5.336 -0.3891  0.1088 -0.0152
  221DOPC   H8X30468  -0.113  11.244   5.307 -1.5853  0.3037 -0.5826
  221DOPC   H8Y30469  -0.007  11.386   5.307 -0.5190  0.8862  0.4306
  221DOPC   C3930470  -0.205  11.437   5.254  0.2710  0.2898  0.1177
  221DOPC   H9X30471  -0.169  11.540   5.240 -0.9153  0.6445 -0.4905
  221DOPC  C31030472  -0.323  11.403   5.195 -0.1462 -0.0247 -0.1341
  221DOPC  H10X30473  -0.385  11.480   5.147 -0.1276  0.6671  0.9182
  221DOPC  C31130474  -0.381  11.260   5.199 -0.2579 -0.2096  0.1569
  221DOPC  H11X30475  -0.438  11.240   5.292  1.9538  2.2990  2.2066
  221DOPC  H11Y30476  -0.299  11.187   5.185  1.2018  1.7383 -2.3895
  221DOPC  C31230477  -0.490  11.224   5.097  0.3894 -0.2630  0.3468
  221DOPC  H12X30478  -0.580  11.288   5.111  0.5880  0.4421 -1.3150
  221DOPC  H12Y30479  -0.522  11.119   5.113 -1.0988  0.4777  2.9251
  221DOPC  C31330480  -0.442  11.253   4.952  0.2007 -0.0948  0.4532
  221DOPC  H13X30481  -0.397  11.352   4.930  0.8668 -0.4049  0.3672
  221DOPC  H13Y30482  -0.361  11.179   4.932 -0.8298 -0.7202 -1.7198
  221DOPC  C31430483  -0.546  11.230   4.844 -0.8625  0.3854  0.1296
  221DOPC  H14X30484  -0.566  11.121   4.855  0.1957  0.3827  2.8308
  221DOPC  H14Y30485  -0.631  11.292   4.882 -0.1968  0.2187  1.9870
  221DOPC  C31530486  -0.502  11.268   4.700  0.2932  0.0905 -0.4260
  221DOPC  H15X30487  -0.400  11.225   4.685 -0.3410 -1.6916  0.1382
  221DOPC  H15Y30488  -0.485  11.378   4.700 -0.4520  0.2401  1.7080
  221DOPC  C31630489  -0.603  11.234   4.585 -0.1817 -0.3672  0.1847
  221DOPC  H16X30490  -0.596  11.124   4.567  2.2488 -0.1273 -0.6782
  221DOPC  H16Y30491  -0.703  11.259   4.625  0.0637 -1.1334  1.3515
  221DOPC  C31730492  -0.560  11.313   4.463 -0.0911  0.6750 -0.0455
  221DOPC  H17X30493  -0.578  11.420   4.487  0.7315  0.7851  0.0871
  221DOPC  H17Y30494  -0.452  11.294   4.444 -0.0941  0.9708 -0.3715
  221DOPC  C31830495  -0.640  11.267   4.340 -0.2133  0.0064 -0.0046
  221DOPC  H18X30496  -0.644  11.157   4.332  0.2864  0.0797 -1.4640
  221DOPC  H18Y30497  -0.746  11.299   4.351  0.0832  0.5278  1.5834
  221DOPC  H18Z30498  -0.591  11.313   4.252  2.9726 -0.4445  1.3973
  222DOPC     N30499   9.041   2.568   1.954 -0.6983 -0.0954  0.3886
  222DOPC   C1230500   9.079   2.434   1.888 -0.4451  0.2113  0.0333
  222DOPC  H12A30501   9.096   2.365   1.970 -1.3541  0.2105  0.2366
  222DOPC  H12B30502   9.172   2.457   1.838  2.3222 -3.0086  3.1651
  222DOPC   C1330503   8.982   2.658   1.850  0.6673 -0.3837  0.2989
  222DOPC  H13A30504   8.968   2.761   1.882  0.8249 -0.0666 -0.6273
  222DOPC  H13B30505   9.052   2.657   1.767  0.7412  0.0699  0.3496
  222DOPC  H13C30506   8.888   2.610   1.830  0.1976 -0.0270  1.5247
  222DOPC   C1430507   9.161   2.631   2.015 -0.4023  0.4885 -0.2173
  222DOPC  H14A30508   9.136   2.719   2.073 -1.3964 -0.0217  0.1429
  222DOPC  H14B30509   9.222   2.562   2.071  0.3645  0.1900 -1.3733
  222DOPC  H14C30510   9.228   2.651   1.932  1.1651 -3.3416 -0.0822
  222DOPC   C1530511   8.940   2.545   2.059 -0.3491 -0.2392  0.1307
  222DOPC  H15A30512   8.925   2.639   2.109  3.3971  0.0807  0.9495
  222DOPC  H15B30513   8.965   2.472   2.135  0.5938  0.6998  0.7474
  222DOPC  H15C30514   8.845   2.514   2.018 -0.4941  2.1231 -1.5011
  222DOPC   C1130515   8.987   2.361   1.788 -0.0892 -0.1592 -0.1784
  222DOPC  H11A30516   8.981   2.425   1.697  0.6219  2.5965  1.5769
  222DOPC  H11B30517   9.039   2.269   1.754  0.4708 -0.0478  0.3602
  222DOPC     P30518   8.816   2.223   1.937  0.3042  0.0608 -0.2568
  222DOPC   O1330519   8.943   2.165   1.989 -0.2006 -0.1027 -0.1852
  222DOPC   O1430520   8.730   2.131   1.862 -0.1294 -0.4809  0.0061
  222DOPC   O1230521   8.858   2.341   1.848  0.3000 -0.3494 -0.6655
  222DOPC   O1130522   8.723   2.290   2.044 -0.3551  0.2195 -0.0893
  222DOPC    C130523   8.599   2.353   2.007  0.2177 -0.1650 -0.4043
  222DOPC    HA30524   8.520   2.278   1.986 -0.9962  0.0616  2.7931
  222DOPC    HB30525   8.601   2.423   1.921 -5.1260  0.2172 -0.5595
  222DOPC    C230526   8.543   2.424   2.127 -0.6033  0.1244 -0.0257
  222DOPC    HS30527   8.440   2.458   2.101 -1.4777 -2.4722 -0.2941
  222DOPC   O2130528   8.632   2.530   2.171 -0.1344  0.3744 -0.2466
  222DOPC   C2130529   8.575   2.637   2.229 -0.0208  0.7092 -0.5157
  222DOPC   O2230530   8.460   2.668   2.237 -0.2408 -0.0238  0.2545
  222DOPC   C2230531   8.677   2.715   2.319  0.1617 -1.4191  0.3415
  222DOPC   H2R30532   8.727   2.792   2.255 -0.4264 -0.5296  0.9292
  222DOPC   H2S30533   8.768   2.652   2.332  0.1850 -1.7938 -1.4214
  222DOPC    C330534   8.521   2.321   2.241  0.1118 -0.5680 -0.5607
  222DOPC    HX30535   8.611   2.257   2.251  0.6136  0.1680 -0.3063
  222DOPC    HY30536   8.449   2.247   2.200  0.4156 -0.5663 -1.1065
  222DOPC   O3130537   8.479   2.383   2.367 -0.3282 -0.1015  0.3061
  222DOPC   C3130538   8.348   2.366   2.402  0.3417 -0.3595  0.0237
  222DOPC   O3230539   8.261   2.316   2.333 -0.0560 -0.0875 -0.3406
  222DOPC   C3230540   8.341   2.422   2.544  0.3165 -0.0714 -0.0926
  222DOPC   H2X30541   8.440   2.415   2.595  0.9690  0.6440 -1.2045
  222DOPC   H2Y30542   8.312   2.529   2.543 -0.6280 -0.2681 -2.6996
  222DOPC   C2330543   8.609   2.771   2.449 -0.1364 -0.4092  0.0738
  222DOPC   H3R30544   8.501   2.792   2.433  0.4388  2.1993 -0.7806
  222DOPC   H3S30545   8.651   2.871   2.468 -0.4740 -0.5093  1.4556
  222DOPC   C2430546   8.626   2.672   2.572 -0.0706  0.0074  0.2739
  222DOPC   H4R30547   8.585   2.569   2.560  2.3726 -1.2656  1.9339
  222DOPC   H4S30548   8.557   2.708   2.651  0.0242  0.1465  0.2947
  222DOPC   C2530549   8.764   2.661   2.636 -0.2780 -0.0604  0.1917
  222DOPC   H5R30550   8.824   2.741   2.588  0.4898  0.4045  1.8538
  222DOPC   H5S30551   8.816   2.570   2.598  0.7046  0.2583  0.7281
  222DOPC   C2630552   8.774   2.675   2.786  0.3138 -0.0672  0.5583
  222DOPC   H6R30553   8.705   2.753   2.825 -0.7870 -0.5988 -0.2662
  222DOPC   H6S30554   8.879   2.699   2.813  0.1750  1.2377  0.0006
  222DOPC   C2730555   8.737   2.542   2.847  0.3343 -0.1880 -0.0678
  222DOPC   H7R30556   8.796   2.464   2.794 -0.1090  0.5679 -1.7263
  222DOPC   H7S30557   8.630   2.514   2.833  0.0118  0.4455  1.0625
  222DOPC   C2830558   8.753   2.528   3.001 -0.2026 -0.5180 -0.6151
  222DOPC   H8R30559   8.860   2.556   3.013 -0.0981 -1.1837  0.0140
  222DOPC   H8S30560   8.729   2.424   3.030  1.5779 -0.6141  0.6438
  222DOPC   C2930561   8.671   2.630   3.079  0.5605  0.6897 -0.7474
  222DOPC   H9R30562   8.707   2.733   3.066  1.8395  0.7743  2.5538
  222DOPC  C21030563   8.558   2.605   3.153  0.2128  0.3341 -0.2753
  222DOPC  H10R30564   8.510   2.689   3.206  0.1138 -0.1361  0.3990
  222DOPC  C21130565   8.499   2.470   3.189  0.2064  0.7523 -0.0120
  222DOPC  H11R30566   8.561   2.378   3.183 -1.8530 -0.6731 -0.7497
  222DOPC  H11S30567   8.401   2.459   3.137 -0.9699 -0.5200  2.2661
  222DOPC  C21230568   8.467   2.458   3.346  0.0897  0.5414  0.0787
  222DOPC  H12R30569   8.396   2.373   3.349  0.0576  0.5645 -0.0484
  222DOPC  H12S30570   8.422   2.550   3.389  0.4199  1.2225 -0.9796
  222DOPC  C21330571   8.595   2.419   3.426 -0.3964  0.0778  0.3229
  222DOPC  H13R30572   8.671   2.500   3.416 -0.0181 -0.5243 -2.2531
  222DOPC  H13S30573   8.644   2.324   3.395 -0.2446  0.0092  0.7662
  222DOPC  C21430574   8.563   2.404   3.575 -0.2166 -0.4668 -0.0354
  222DOPC  H14R30575   8.511   2.497   3.609 -0.5257 -0.1499 -1.3343
  222DOPC  H14S30576   8.654   2.395   3.638  1.2412 -0.3659 -2.0388
  222DOPC  C21530577   8.460   2.290   3.607 -0.1790 -0.5326  0.5666
  222DOPC  H15R30578   8.500   2.200   3.556 -0.0216  0.1002 -0.4538
  222DOPC  H15S30579   8.362   2.299   3.555  0.1621 -0.2590 -0.0359
  222DOPC  C21630580   8.442   2.258   3.757  0.2432 -0.2565  0.1547
  222DOPC  H16R30581   8.376   2.169   3.765 -0.4164  0.2835  0.7808
  222DOPC  H16S30582   8.393   2.341   3.813  0.0106 -0.2416 -0.0676
  222DOPC  C21730583   8.575   2.229   3.829  0.4592  0.6323 -0.3107
  222DOPC  H17R30584   8.642   2.318   3.830  0.7714  0.4991 -2.5488
  222DOPC  H17S30585   8.626   2.150   3.769  0.4006  1.5758 -1.6411
  222DOPC  C21830586   8.549   2.179   3.972 -0.1578 -0.3910 -1.0544
  222DOPC  H18R30587   8.643   2.134   4.010  0.4000  0.0147 -1.9148
  222DOPC  H18S30588   8.472   2.100   3.965 -0.5067 -0.0204 -1.4077
  222DOPC  H18T30589   8.516   2.269   4.028  1.0729 -0.2841 -0.4574
  222DOPC   C3330590   8.231   2.347   2.623 -0.0246  0.8729 -0.3905
  222DOPC   H3X30591   8.259   2.240   2.633 -0.9421  0.6925  0.3832
  222DOPC   H3Y30592   8.142   2.350   2.556  0.7164 -0.0808 -1.4494
  222DOPC   C3430593   8.210   2.403   2.763 -0.0657  0.1486  0.6852
  222DOPC   H4X30594   8.215   2.514   2.767  1.8307  0.1432 -0.1702
  222DOPC   H4Y30595   8.295   2.363   2.823  0.5585  1.1603  0.5023
  222DOPC   C3530596   8.078   2.351   2.821  0.0022 -0.6980  0.7401
  222DOPC   H5X30597   8.071   2.241   2.827 -1.0448 -0.5765  2.2757
  222DOPC   H5Y30598   7.990   2.390   2.765 -0.2912  0.7417  2.1192
  222DOPC   C3630599   8.061   2.398   2.969 -0.1137 -0.1134 -0.2606
  222DOPC   H6X30600   8.158   2.385   3.022 -0.8045  0.8177  1.2679
  222DOPC   H6Y30601   8.046   2.508   2.964  1.4699  0.2851  2.1058
  222DOPC   C3730602   7.943   2.322   3.034  0.5772 -0.3782 -0.0806
  222DOPC   H7X30603   7.858   2.359   2.972  1.4608 -0.2577 -1.2488
  222DOPC   H7Y30604   7.954   2.213   3.020  1.9260 -0.3677  0.7694
  222DOPC   C3830605   7.912   2.350   3.183 -0.2193  0.2107  0.3238
  222DOPC   H8X30606   7.831   2.279   3.211 -0.0564 -0.8622 -1.6923
  222DOPC   H8Y30607   7.888   2.454   3.212  0.3626  0.1994  0.8645
  222DOPC   C3930608   8.032   2.305   3.254 -0.8172 -0.0944 -0.5700
  222DOPC   H9X30609   8.076   2.209   3.224 -0.7671 -0.2315 -0.0803
  222DOPC  C31030610   8.090   2.377   3.355 -0.4094  0.2507  0.6366
  222DOPC  H10X30611   8.177   2.350   3.417  0.7169  1.6633 -0.2413
  222DOPC  C31130612   8.046   2.517   3.390 -0.6027  0.1570  0.2507
  222DOPC  H11X30613   7.943   2.546   3.359 -1.3341 -2.9410 -0.4976
  222DOPC  H11Y30614   8.116   2.580   3.331  0.8603 -2.1273 -0.5850
  222DOPC  C31230615   8.052   2.553   3.543 -1.1220 -0.3503  0.5823
  222DOPC  H12X30616   7.988   2.483   3.601 -1.7014 -2.5946 -2.4905
  222DOPC  H12Y30617   7.999   2.649   3.559  1.3987  0.9824  1.5707
  222DOPC  C31330618   8.197   2.569   3.595  0.3996 -0.6219  1.1365
  222DOPC  H13X30619   8.240   2.467   3.590  0.0007 -0.7437 -1.9315
  222DOPC  H13Y30620   8.247   2.633   3.518 -0.4718  0.5331  1.4892
  222DOPC  C31430621   8.214   2.643   3.734  0.3099 -0.0476 -0.1361
  222DOPC  H14X30622   8.322   2.636   3.759 -0.0372 -0.1230  1.4853
  222DOPC  H14Y30623   8.175   2.747   3.725  0.5883 -0.0252 -1.1115
  222DOPC  C31530624   8.144   2.575   3.855  0.1563  0.0618 -0.0972
  222DOPC  H15X30625   8.179   2.470   3.845 -0.1599 -0.0348 -0.2001
  222DOPC  H15Y30626   8.037   2.564   3.828  0.6350  0.0085 -2.1045
  222DOPC  C31630627   8.189   2.636   3.983 -0.2692 -0.2442  0.5618
  222DOPC  H16X30628   8.299   2.650   3.976 -0.3841  1.6006  1.5590
  222DOPC  H16Y30629   8.145   2.736   4.006  0.4580  0.1212  0.4007
  222DOPC  C31730630   8.170   2.542   4.103  0.1161 -0.2972  0.3085
  222DOPC  H17X30631   8.172   2.599   4.199 -0.7340  0.5198 -0.1432
  222DOPC  H17Y30632   8.069   2.496   4.099  1.5286 -3.5896 -2.1850
  222DOPC  C31830633   8.263   2.418   4.113  0.3967 -0.0459 -0.3276
  222DOPC  H18X30634   8.277   2.375   4.012 -0.2922  0.1627 -0.5187
  222DOPC  H18Y30635   8.360   2.439   4.163  0.0523 -2.5545  1.5502
  222DOPC  H18Z30636   8.216   2.341   4.178 -0.3752 -0.1831 -1.0229
  223DOPC     N30637   8.410   5.374   1.650 -0.2197 -0.3517  0.1411
  223DOPC   C1230638   8.457   5.508   1.710  0.9413  0.4202  0.2991
  223DOPC  H12A30639   8.376   5.578   1.695 -0.1295 -0.2399  2.6162
  223DOPC  H12B30640   8.540   5.549   1.654  0.2010  1.9867  0.3001
  223DOPC   C1330641   8.305   5.306   1.726 -0.6478  0.5854 -0.6071
  223DOPC  H13A30642   8.223   5.372   1.752  0.2418  2.3128 -1.9392
  223DOPC  H13B30643   8.268   5.214   1.684  1.6603 -1.2244  1.1065
  223DOPC  H13C30644   8.354   5.269   1.814 -1.9703 -0.3185 -0.2270
  223DOPC   C1430645   8.526   5.282   1.635 -0.0480  0.7747 -0.1764
  223DOPC  H14A30646   8.495   5.190   1.587  0.6567 -0.1125  1.0342
  223DOPC  H14B30647   8.598   5.328   1.569 -1.1627  1.1270 -1.1774
  223DOPC  H14C30648   8.567   5.256   1.731 -0.8313  0.2977  0.0303
  223DOPC   C1530649   8.353   5.395   1.513  0.1579 -0.1483  0.0282
  223DOPC  H15A30650   8.282   5.476   1.504  1.3950  1.0112  0.3362
  223DOPC  H15B30651   8.314   5.302   1.474 -0.7952  0.3769 -0.2958
  223DOPC  H15C30652   8.432   5.425   1.445 -0.8499 -0.0108 -1.1184
  223DOPC   C1130653   8.504   5.504   1.856  0.7094 -0.2166  1.0353
  223DOPC  H11A30654   8.507   5.610   1.886  0.9395  0.2707 -0.6126
  223DOPC  H11B30655   8.430   5.446   1.915 -0.3987  0.3946  0.2837
  223DOPC     P30656   8.767   5.497   1.853 -0.1039  0.1509  0.0690
  223DOPC   O1330657   8.765   5.559   1.720 -0.3798 -0.3221 -0.0296
  223DOPC   O1430658   8.872   5.396   1.877 -0.2058 -0.0295  0.1666
  223DOPC   O1230659   8.628   5.431   1.884 -0.3521 -0.2396  0.1766
  223DOPC   O1130660   8.772   5.616   1.959  0.8135  0.0088 -0.1052
  223DOPC    C130661   8.879   5.642   2.044 -0.4506 -0.6680  0.2342
  223DOPC    HA30662   8.882   5.750   2.068  1.0296 -0.5661 -0.2715
  223DOPC    HB30663   8.979   5.624   1.999 -0.2344 -0.9768  0.8152
  223DOPC    C230664   8.878   5.564   2.177  0.7695  0.1860  0.2670
  223DOPC    HS30665   8.887   5.458   2.144  0.5646  0.0317  0.6854
  223DOPC   O2130666   8.748   5.586   2.243 -0.0474  0.2389 -0.3796
  223DOPC   C2130667   8.708   5.499   2.327 -0.4320  0.3684  1.2043
  223DOPC   O2230668   8.772   5.391   2.342 -0.0269 -0.0973 -0.4208
  223DOPC   C2230669   8.586   5.553   2.403  0.1581  0.0143 -0.4967
  223DOPC   H2R30670   8.498   5.554   2.335 -0.4574  2.0797  0.2478
  223DOPC   H2S30671   8.599   5.659   2.433 -2.1556  1.0996 -2.9421
  223DOPC    C330672   8.991   5.604   2.281 -0.0250  0.1111  0.0080
  223DOPC    HX30673   9.088   5.572   2.238 -0.3431 -1.5062  0.4357
  223DOPC    HY30674   8.986   5.542   2.373  0.0631 -0.0109 -0.0698
  223DOPC   O3130675   9.002   5.747   2.302  0.0852 -0.1828 -0.4715
  223DOPC   C3130676   8.938   5.787   2.401  0.7279 -0.6504 -0.2635
  223DOPC   O3230677   8.864   5.720   2.474  0.2287 -0.6003  0.2001
  223DOPC   C3230678   8.968   5.938   2.427 -0.4950  0.4719 -0.1204
  223DOPC   H2X30679   9.069   5.963   2.389 -0.6579  0.5721 -0.4928
  223DOPC   H2Y30680   8.890   5.986   2.364  0.7079  0.4724 -1.6638
  223DOPC   C2330681   8.548   5.461   2.522  0.1886 -0.2148  0.3444
  223DOPC   H3R30682   8.633   5.449   2.593  0.8041  0.6209 -0.2339
  223DOPC   H3S30683   8.536   5.359   2.479  1.7986  0.5921 -2.2194
  223DOPC   C2430684   8.428   5.493   2.610  0.7686 -0.0582  0.4710
  223DOPC   H4R30685   8.342   5.469   2.544 -0.2409  0.3151  1.5926
  223DOPC   H4S30686   8.427   5.604   2.623  2.3493 -0.2339  2.6129
  223DOPC   C2530687   8.417   5.430   2.749  0.7564  0.0040 -0.3553
  223DOPC   H5R30688   8.514   5.425   2.803  0.5301  0.4656  0.1084
  223DOPC   H5S30689   8.384   5.325   2.732  0.2218  0.4835 -2.6036
  223DOPC   C2630690   8.316   5.508   2.842 -0.6070 -1.0139  0.2332
  223DOPC   H6R30691   8.215   5.505   2.795 -0.1293  0.2017 -0.9254
  223DOPC   H6S30692   8.347   5.615   2.842 -1.3094 -0.7766 -1.6117
  223DOPC   C2730693   8.310   5.460   2.993  0.0640  0.2717  0.4078
  223DOPC   H7R30694   8.409   5.492   3.032  0.1093  0.5698  0.0542
  223DOPC   H7S30695   8.322   5.349   2.986  1.9931  0.2405  2.8856
  223DOPC   C2830696   8.190   5.493   3.081 -0.1956  0.5394 -0.3771
  223DOPC   H8R30697   8.086   5.474   3.048 -0.3670  1.8743 -0.6593
  223DOPC   H8S30698   8.184   5.602   3.101  1.5538  0.3646  1.3324
  223DOPC   C2930699   8.202   5.405   3.206  0.5407 -0.4667  0.2190
  223DOPC   H9R30700   8.223   5.299   3.186  1.7987 -0.4911  1.5026
  223DOPC  C21030701   8.204   5.455   3.331  0.7934 -0.3036  0.3142
  223DOPC  H10R30702   8.218   5.388   3.417 -2.4310 -1.4311  0.0959
  223DOPC  C21130703   8.191   5.609   3.359 -0.1913  0.0686  0.4817
  223DOPC  H11R30704   8.090   5.647   3.334  0.0472  1.5869  1.6502
  223DOPC  H11S30705   8.251   5.665   3.285 -2.0110  0.4441 -0.7581
  223DOPC  C21230706   8.235   5.657   3.498 -0.0527 -0.8070 -0.6878
  223DOPC  H12R30707   8.174   5.605   3.575  1.4904  0.4366  1.4555
  223DOPC  H12S30708   8.227   5.767   3.513 -1.7196 -0.8818 -0.8002
  223DOPC  C21330709   8.380   5.619   3.549 -0.0621  0.1320 -0.2654
  223DOPC  H13R30710   8.457   5.675   3.493  3.3751 -0.4080  3.4249
  223DOPC  H13S30711   8.398   5.514   3.519 -1.0613  0.2706 -1.3877
  223DOPC  C21430712   8.418   5.650   3.698 -0.3721 -0.7922 -0.1987
  223DOPC  H14R30713   8.331   5.617   3.759  0.2514  0.9062  1.7173
  223DOPC  H14S30714   8.416   5.761   3.705  0.2757 -0.7441 -0.6767
  223DOPC  C21530715   8.554   5.587   3.732  0.2849 -0.1816  0.5488
  223DOPC  H15R30716   8.611   5.627   3.818  1.4928 -2.3381  0.8230
  223DOPC  H15S30717   8.616   5.607   3.642 -0.7914 -0.7624 -0.3471
  223DOPC  C21630718   8.550   5.434   3.746  0.0801  0.4090 -0.1341
  223DOPC  H16R30719   8.546   5.379   3.650 -0.4265 -1.6284  1.0167
  223DOPC  H16S30720   8.454   5.399   3.791  0.2855  0.6469  0.5062
  223DOPC  C21730721   8.670   5.385   3.830  0.0135  0.4794 -0.6138
  223DOPC  H17R30722   8.639   5.279   3.837 -1.2640  0.6125 -3.0304
  223DOPC  H17S30723   8.664   5.415   3.937  0.6185 -1.5138  0.0229
  223DOPC  C21830724   8.808   5.404   3.766  0.1908 -0.0165  0.0744
  223DOPC  H18R30725   8.891   5.365   3.828  1.4816  0.1794 -1.4797
  223DOPC  H18S30726   8.819   5.514   3.750  3.6978 -0.1232  1.0926
  223DOPC  H18T30727   8.810   5.354   3.667  1.7656 -1.8679  0.9911
  223DOPC   C3330728   8.949   5.971   2.574 -0.3680 -0.4198 -1.1058
  223DOPC   H3X30729   9.047   5.960   2.625 -0.0030  0.2818 -1.6343
  223DOPC   H3Y30730   8.871   5.910   2.623  0.9690 -1.5134 -0.2538
  223DOPC   C3430731   8.911   6.121   2.594 -0.0695 -0.1995  0.9558
  223DOPC   H4X30732   8.810   6.145   2.555 -0.4797  0.6203  2.4176
  223DOPC   H4Y30733   8.989   6.180   2.542 -1.0592  0.4139  0.1475
  223DOPC   C3530734   8.915   6.179   2.737 -0.0850  0.1232 -0.8631
  223DOPC   H5X30735   8.886   6.286   2.745  0.4051  0.1576  3.9416
  223DOPC   H5Y30736   9.023   6.186   2.765 -0.5852  0.9449  1.0319
  223DOPC   C3630737   8.836   6.096   2.839 -0.0831  0.0389 -0.2081
  223DOPC   H6X30738   8.728   6.092   2.812 -0.0308 -1.9187 -0.3032
  223DOPC   H6Y30739   8.857   5.987   2.838 -1.0627 -0.1596 -0.5817
  223DOPC   C3730740   8.858   6.149   2.978  0.2598 -0.2045 -0.1023
  223DOPC   H7X30741   8.960   6.137   3.021 -0.4535  1.0893  2.1347
  223DOPC   H7Y30742   8.832   6.257   2.977  0.5723 -0.1356 -0.5993
  223DOPC   C3830743   8.753   6.075   3.071 -0.3190 -0.3697 -0.3676
  223DOPC   H8X30744   8.789   5.970   3.067  0.9270  0.0146  0.1345
  223DOPC   H8Y30745   8.657   6.078   3.017 -0.1766 -0.8984 -0.6553
  223DOPC   C3930746   8.743   6.134   3.220 -0.0955 -0.0130 -0.6025
  223DOPC   H9X30747   8.758   6.243   3.227  0.1847 -0.0640 -0.4004
  223DOPC  C31030748   8.727   6.067   3.335  0.3606  0.1737  0.3061
  223DOPC  H10X30749   8.708   6.130   3.424  1.2843 -0.1873  0.7725
  223DOPC  C31130750   8.712   5.920   3.336  0.0735  0.3707 -0.0310
  223DOPC  H11X30751   8.695   5.887   3.231 -0.0909 -0.3062  0.2012
  223DOPC  H11Y30752   8.618   5.895   3.390 -1.3696  0.2127 -2.4997
  223DOPC  C31230753   8.843   5.842   3.375  0.1687 -0.3183  0.1077
  223DOPC  H12X30754   8.876   5.872   3.477  1.1902 -2.8453  0.5864
  223DOPC  H12Y30755   8.925   5.866   3.305  0.3051 -1.1013 -0.0126
  223DOPC  C31330756   8.839   5.685   3.377  0.7051 -0.2576 -0.2030
  223DOPC  H13X30757   8.936   5.654   3.421 -0.0644 -1.9530  0.3632
  223DOPC  H13Y30758   8.757   5.653   3.444 -0.1835  0.4781 -0.9148
  223DOPC  C31430759   8.824   5.620   3.242  0.2588 -0.2167 -0.2636
  223DOPC  H14X30760   8.796   5.513   3.252  1.8411 -0.5164  1.6244
  223DOPC  H14Y30761   8.738   5.672   3.196  1.4278  1.0602 -1.1048
  223DOPC  C31530762   8.945   5.639   3.145  0.3735 -0.3166 -0.2754
  223DOPC  H15X30763   9.030   5.580   3.185 -0.5636 -2.2936 -1.0294
  223DOPC  H15Y30764   8.965   5.748   3.141  1.5901 -0.5454 -0.7074
  223DOPC  C31630765   8.914   5.589   3.007 -0.2893 -0.1762  0.1027
  223DOPC  H16X30766   9.012   5.593   2.955 -0.5726  0.8413 -0.3836
  223DOPC  H16Y30767   8.886   5.482   2.993 -0.5654  0.1643 -2.3865
  223DOPC  C31730768   8.804   5.664   2.929 -0.7153  0.4142  0.0242
  223DOPC  H17X30769   8.697   5.644   2.953 -1.1479  1.2175 -1.1051
  223DOPC  H17Y30770   8.818   5.770   2.961  1.6282 -0.4021  1.9545
  223DOPC  C31830771   8.815   5.652   2.774 -0.9756 -0.0854  0.4160
  223DOPC  H18X30772   8.832   5.546   2.747 -0.2103  0.2661 -0.5391
  223DOPC  H18Y30773   8.732   5.693   2.713  0.5898 -1.8675 -3.1831
  223DOPC  H18Z30774   8.910   5.700   2.740 -0.8540  0.3415  1.3239
  224DOPC     N30775   8.974  12.027   2.007 -0.4133  0.5865  0.1969
  224DOPC   C1230776   8.941  12.130   2.107  0.9698 -0.1879 -0.0453
  224DOPC  H12A30777   8.856  12.193   2.085  0.7665  0.4913  2.3615
  224DOPC  H12B30778   9.032  12.187   2.122  1.8055 -1.0891 -1.5006
  224DOPC   C1330779   8.858  11.938   1.975 -0.2301 -0.7917 -0.9524
  224DOPC  H13A30780   8.905  11.849   1.936  0.9282 -0.7679  0.2936
  224DOPC  H13B30781   8.807  11.907   2.065  1.2306  0.5087  0.3836
  224DOPC  H13C30782   8.794  11.971   1.895 -0.5206 -1.4880 -1.0102
  224DOPC   C1430783   9.090  11.941   2.044  0.0226  0.7669 -0.3976
  224DOPC  H14A30784   9.104  11.855   1.980 -0.8207 -0.4898  1.0419
  224DOPC  H14B30785   9.184  11.992   2.054  0.2776  0.2616 -0.1859
  224DOPC  H14C30786   9.064  11.887   2.134  0.9252 -2.0115 -1.6722
  224DOPC   C1530787   9.026  12.085   1.877  0.1920  0.5703 -0.2647
  224DOPC  H15A30788   9.128  12.119   1.884  0.8443 -1.4691  1.4631
  224DOPC  H15B30789   8.964  12.166   1.842 -0.0420  0.9456  0.9669
  224DOPC  H15C30790   9.010  12.023   1.790 -1.7885  0.4032  0.1662
  224DOPC   C1130791   8.908  12.088   2.256 -0.3442  0.0736  0.8671
  224DOPC  H11A30792   8.973  12.002   2.284 -0.7834 -0.7406 -0.5105
  224DOPC  H11B30793   8.948  12.171   2.318  2.5676 -0.9883  0.5516
  224DOPC     P30794   8.666  12.175   2.257  0.2255  0.0418 -0.1951
  224DOPC   O1330795   8.548  12.130   2.181 -0.2257 -0.1420  0.0155
  224DOPC   O1430796   8.727  12.302   2.212  0.6127  0.5047  0.1834
  224DOPC   O1230797   8.765  12.058   2.278 -0.3048  0.2067 -0.4497
  224DOPC   O1130798   8.624  12.193   2.407  0.0247 -0.1573  0.2505
  224DOPC    C130799   8.580  12.077   2.483 -0.2923  0.3134 -0.0706
  224DOPC    HA30800   8.667  12.031   2.536 -0.9401 -1.8067 -0.7595
  224DOPC    HB30801   8.536  11.997   2.421 -0.7030  0.3390  0.1869
  224DOPC    C230802   8.470  12.119   2.586 -0.0474  0.3885 -0.1063
  224DOPC    HS30803   8.386  12.166   2.530 -1.6679 -2.1879  0.0030
  224DOPC   O2130804   8.530  12.210   2.687  0.3511  0.2241  0.3572
  224DOPC   C2130805   8.430  12.271   2.752 -0.4167 -0.1125  0.8227
  224DOPC   O2230806   8.314  12.276   2.722 -0.0537  0.4650 -0.2504
  224DOPC   C2230807   8.491  12.319   2.885  0.3429 -0.2564 -0.1084
  224DOPC   H2R30808   8.568  12.395   2.860  0.2454 -0.4000 -0.8558
  224DOPC   H2S30809   8.531  12.229   2.937 -0.1828 -0.1385  0.5088
  224DOPC    C330810   8.396  11.997   2.650 -0.0619 -0.7321 -0.0733
  224DOPC    HX30811   8.326  11.951   2.578 -1.1953 -2.8866  2.2504
  224DOPC    HY30812   8.327  12.024   2.734  0.2720 -1.7587  0.5401
  224DOPC   O3130813   8.491  11.892   2.682  0.2897 -0.0566  0.2804
  224DOPC   C3130814   8.546  11.900   2.800 -0.3843 -0.1028  0.2226
  224DOPC   O3230815   8.502  11.968   2.893  1.0287  0.0084  0.1291
  224DOPC   C3230816   8.672  11.811   2.807  0.9813  0.4120  0.3509
  224DOPC   H2X30817   8.710  11.817   2.703 -1.3635  0.5654 -0.5431
  224DOPC   H2Y30818   8.740  11.856   2.883  0.2556  1.5061  0.3651
  224DOPC   C2330819   8.395  12.378   2.981  0.4115 -0.5046  0.0662
  224DOPC   H3R30820   8.309  12.312   3.005 -0.5281  0.3779 -0.7799
  224DOPC   H3S30821   8.340  12.462   2.932  1.0152  0.8244  1.5677
  224DOPC   C2430822   8.441  12.426   3.120 -0.1496 -0.1733 -0.8570
  224DOPC   H4R30823   8.394  12.525   3.139 -1.5504 -1.1984  1.3830
  224DOPC   H4S30824   8.551  12.445   3.118 -0.2608  0.6525  0.0458
  224DOPC   C2530825   8.414  12.323   3.227 -0.2578  0.7403 -0.8128
  224DOPC   H5R30826   8.475  12.236   3.196  0.0299  0.2642  0.9975
  224DOPC   H5S30827   8.304  12.305   3.231 -0.2773  1.1272  1.1430
  224DOPC   C2630828   8.463  12.359   3.366  0.0760  0.8414  0.1368
  224DOPC   H6R30829   8.574  12.364   3.360  0.3488 -0.6890  2.5671
  224DOPC   H6S30830   8.440  12.275   3.434  0.8501  1.4591  1.1839
  224DOPC   C2730831   8.392  12.484   3.419 -0.0088  0.0380 -0.1187
  224DOPC   H7R30832   8.284  12.463   3.400  0.6931 -5.7538  0.5459
  224DOPC   H7S30833   8.427  12.570   3.359 -1.7639  2.5246  2.1743
  224DOPC   C2830834   8.436  12.511   3.567 -0.1580  0.4914 -0.0933
  224DOPC   H8R30835   8.441  12.621   3.581  1.9505  0.5206 -0.7333
  224DOPC   H8S30836   8.542  12.476   3.568 -0.6458 -1.0783  0.3821
  224DOPC   C2930837   8.358  12.430   3.674  0.3577  0.5577  1.1878
  224DOPC   H9R30838   8.261  12.395   3.636  1.2522  0.7967 -1.5440
  224DOPC  C21030839   8.368  12.404   3.804  0.1646  0.2597 -0.2110
  224DOPC  H10R30840   8.291  12.344   3.853  0.1929 -0.1755 -0.6901
  224DOPC  C21130841   8.485  12.451   3.884 -0.2080 -0.5186 -0.3095
  224DOPC  H11R30842   8.456  12.537   3.948  1.6391 -1.3741  1.8044
  224DOPC  H11S30843   8.569  12.490   3.824 -0.2611  2.8022  1.5524
  224DOPC  C21230844   8.540  12.331   3.967 -0.0046  0.2067  0.1972
  224DOPC  H12R30845   8.559  12.248   3.895  0.2879  1.0955 -0.7732
  224DOPC  H12S30846   8.472  12.292   4.046  0.7348 -0.1553  0.6760
  224DOPC  C21330847   8.668  12.366   4.044 -0.0760  0.0152 -0.3444
  224DOPC  H13R30848   8.727  12.440   3.985 -0.3281  0.7088  0.2490
  224DOPC  H13S30849   8.731  12.276   4.061 -1.5249 -0.7399  1.2295
  224DOPC  C21430850   8.651  12.430   4.188 -0.0645 -0.0914 -0.4591
  224DOPC  H14R30851   8.593  12.352   4.240 -0.8860  0.5826 -0.3425
  224DOPC  H14S30852   8.582  12.517   4.180 -0.2215 -0.1257  0.4636
  224DOPC  C21530853   8.784  12.470   4.246  0.0505  0.2007 -0.2413
  224DOPC  H15R30854   8.833  12.530   4.167 -0.9201  1.5469  0.1563
  224DOPC  H15S30855   8.844  12.379   4.267 -0.3981  0.0699  0.5274
  224DOPC  C21630856   8.774  12.555   4.375  0.2384  0.1005  0.0028
  224DOPC  H16R30857   8.758  12.663   4.355 -0.3803 -0.4079 -2.5748
  224DOPC  H16S30858   8.863  12.534   4.437 -0.5912  1.5710  1.7825
  224DOPC  C21730859   8.657  12.525   4.471 -0.4400  0.2161 -0.0841
  224DOPC  H17R30860   8.638  12.418   4.496  0.2521  0.4974  1.8388
  224DOPC  H17S30861   8.563  12.560   4.422  0.6204  2.0754 -0.8991
  224DOPC  C21830862   8.674  12.582   4.613 -0.0891  0.1046 -0.3967
  224DOPC  H18R30863   8.657  12.692   4.613 -1.5656 -0.0941 -1.2218
  224DOPC  H18S30864   8.772  12.566   4.663 -1.8680  1.1449  3.8739
  224DOPC  H18T30865   8.599  12.545   4.686 -0.6942  0.3312 -0.8952
  224DOPC   C3330866   8.647  11.665   2.845  0.7779  0.3828  0.1179
  224DOPC   H3X30867   8.741  11.607   2.833  0.2849 -0.4066 -0.0065
  224DOPC   H3Y30868   8.581  11.607   2.777 -1.1751  0.3113  1.9693
  224DOPC   C3430869   8.603  11.637   2.992 -0.0431 -0.4379 -0.3546
  224DOPC   H4X30870   8.593  11.528   3.012  0.7188 -0.4760 -0.1205
  224DOPC   H4Y30871   8.502  11.681   3.005 -0.7331 -1.8227 -0.7782
  224DOPC   C3530872   8.705  11.693   3.092  0.1385  0.2541  0.3868
  224DOPC   H5X30873   8.716  11.803   3.079  0.2225  0.0032 -2.1976
  224DOPC   H5Y30874   8.802  11.639   3.080 -1.9537 -3.2391 -2.8015
  224DOPC   C3630875   8.672  11.668   3.244  1.2356 -0.0517  0.6508
  224DOPC   H6X30876   8.656  11.558   3.251 -0.5609 -0.1102 -2.5981
  224DOPC   H6Y30877   8.746  11.697   3.322 -0.9635 -1.1753  3.3321
  224DOPC   C3730878   8.537  11.735   3.294  0.9889 -1.0334  0.0509
  224DOPC   H7X30879   8.447  11.707   3.234  2.0355 -0.7449 -1.7487
  224DOPC   H7Y30880   8.515  11.680   3.388 -1.0251  0.5414  0.5573
  224DOPC   C3830881   8.545  11.892   3.313 -0.1555  0.0314  0.1878
  224DOPC   H8X30882   8.582  11.935   3.217 -1.3333  1.8496  0.4932
  224DOPC   H8Y30883   8.631  11.908   3.381 -0.0587 -0.8817  0.2986
  224DOPC   C3930884   8.414  11.958   3.356  0.0478 -0.2109 -0.0635
  224DOPC   H9X30885   8.368  12.013   3.273 -0.9887 -0.4445  0.3396
  224DOPC  C31030886   8.369  11.978   3.485  0.6652  0.2804  0.3530
  224DOPC  H10X30887   8.270  12.025   3.492  0.2403  0.4007 -3.7782
  224DOPC  C31130888   8.437  11.938   3.617  1.1179 -0.1187 -0.4020
  224DOPC  H11X30889   8.420  12.020   3.690  2.6994 -0.5275  0.4814
  224DOPC  H11Y30890   8.547  11.919   3.610  1.2722  0.7882 -0.6277
  224DOPC  C31230891   8.375  11.807   3.672 -0.0247  0.5599  0.3941
  224DOPC  H12X30892   8.405  11.729   3.599 -1.7621  1.8515 -1.8258
  224DOPC  H12Y30893   8.265  11.819   3.656  0.3746  2.9623 -1.0877
  224DOPC  C31330894   8.412  11.775   3.817  0.1199  0.0787 -0.0230
  224DOPC  H13X30895   8.522  11.767   3.828  0.2378 -0.4603 -1.3743
  224DOPC  H13Y30896   8.389  11.854   3.892  2.3477 -0.9688  1.9301
  224DOPC  C31430897   8.347  11.651   3.877 -0.0405 -0.4093  0.6895
  224DOPC  H14X30898   8.370  11.561   3.815  1.0240  0.9837 -1.0393
  224DOPC  H14Y30899   8.379  11.643   3.983  0.6253 -2.5054  0.3854
  224DOPC  C31530900   8.191  11.662   3.881  0.6265 -0.2062  0.0939
  224DOPC  H15X30901   8.147  11.693   3.784 -0.1616  0.3422  0.6205
  224DOPC  H15Y30902   8.161  11.742   3.952  1.1403  1.6201 -1.6458
  224DOPC  C31630903   8.135  11.527   3.921 -0.9173 -0.3149 -0.2335
  224DOPC  H16X30904   8.132  11.451   3.840 -0.9372 -2.0136  1.2966
  224DOPC  H16Y30905   8.197  11.491   4.006 -1.2117  2.0614  1.0589
  224DOPC  C31730906   7.990  11.543   3.974  0.1459 -0.3372  0.3220
  224DOPC  H17X30907   7.976  11.648   4.008  1.6409 -0.5555  1.6838
  224DOPC  H17Y30908   7.933  11.529   3.879  1.7707 -2.4049 -0.4235
  224DOPC  C31830909   7.948  11.442   4.081  0.1110  0.1851 -0.2297
  224DOPC  H18X30910   7.862  11.480   4.139 -1.6915 -3.3370 -0.3190
  224DOPC  H18Y30911   7.921  11.341   4.042  2.6719 -0.4100 -0.6579
  224DOPC  H18Z30912   8.030  11.423   4.153  1.2480 -2.5048 -2.0366
  225DOPC     N30913  12.306   3.040   1.902 -0.0015  0.2619  0.1757
  225DOPC   C1230914  12.376   2.941   1.810 -0.4739  0.2046  0.6340
  225DOPC  H12A30915  12.308   2.894   1.739  1.9087 -2.7295  0.0756
  225DOPC  H12B30916  12.413   2.863   1.875 -2.5011 -3.1657 -1.8803
  225DOPC   C1330917  12.396   3.084   2.015 -0.1863 -0.1601  0.6169
  225DOPC  H13A30918  12.488   3.121   1.973  0.0489 -0.6988  0.6509
  225DOPC  H13B30919  12.345   3.162   2.070 -0.2473  0.3138 -0.0989
  225DOPC  H13C30920  12.419   2.997   2.075  0.5118 -1.6745 -1.6904
  225DOPC   C1430921  12.183   2.977   1.967  0.6457  0.0855  1.0106
  225DOPC  H14A30922  12.103   2.956   1.898 -0.2351  0.1637  1.9757
  225DOPC  H14B30923  12.202   2.882   2.015 -1.4133 -0.5659  0.6235
  225DOPC  H14C30924  12.157   3.051   2.041 -1.2368  1.9877 -1.3863
  225DOPC   C1530925  12.257   3.155   1.821 -0.4027  0.8805  0.9542
  225DOPC  H15A30926  12.340   3.201   1.767 -1.5552  0.4753 -1.2970
  225DOPC  H15B30927  12.207   3.224   1.888  1.3518  1.5493  1.6536
  225DOPC  H15C30928  12.195   3.118   1.741 -0.0687  0.1648  1.0177
  225DOPC   C1130929  12.500   2.991   1.751 -0.6882 -0.2548  0.6797
  225DOPC  H11A30930  12.530   2.945   1.655  1.1671  0.1227  1.0455
  225DOPC  H11B30931  12.495   3.097   1.718 -0.4064  0.4429  2.7543
  225DOPC     P30932  12.701   2.856   1.850  0.6354  0.2186 -0.1625
  225DOPC   O1330933  12.827   2.880   1.775  0.2875 -0.1824  0.1743
  225DOPC   O1430934  12.616   2.743   1.813  0.1261 -0.2795 -0.0978
  225DOPC   O1230935  12.616   2.984   1.842  0.6021 -0.2476  0.5209
  225DOPC   O1130936  12.731   2.849   2.010  0.5966 -0.2777  0.0867
  225DOPC    C130937  12.716   2.722   2.078  0.2688 -0.0094  0.5748
  225DOPC    HA30938  12.800   2.715   2.151 -0.9591  1.2731  2.1897
  225DOPC    HB30939  12.731   2.636   2.010 -1.1599  0.7977 -0.8377
  225DOPC    C230940  12.591   2.711   2.159  0.5739 -0.3127  0.1166
  225DOPC    HS30941  12.515   2.763   2.097  0.5158  0.5221  0.8718
  225DOPC   O2130942  12.619   2.777   2.286 -0.5086 -0.1420 -0.3656
  225DOPC   C2130943  12.525   2.854   2.332  0.2778 -0.6900  0.4706
  225DOPC   O2230944  12.432   2.893   2.261  0.2556  0.2008  0.0549
  225DOPC   C2230945  12.552   2.903   2.473  0.4459 -0.2776  0.0768
  225DOPC   H2R30946  12.499   2.998   2.497  2.5445  0.5748  1.6427
  225DOPC   H2S30947  12.660   2.930   2.465  1.0730 -2.2919  0.9953
  225DOPC    C330948  12.545   2.568   2.180  0.0608  0.1375  0.8234
  225DOPC    HX30949  12.628   2.506   2.221 -0.4517  0.7819  2.9843
  225DOPC    HY30950  12.524   2.526   2.080 -2.3005  0.9367  0.9393
  225DOPC   O3130951  12.433   2.557   2.275 -0.4976  0.3812 -0.0335
  225DOPC   C3130952  12.333   2.473   2.239  0.5637  0.2699 -1.1557
  225DOPC   O3230953  12.323   2.418   2.136 -0.7219  0.3070  0.3790
  225DOPC   C3230954  12.239   2.450   2.360  0.0813  0.3340  0.3569
  225DOPC   H2X30955  12.295   2.428   2.454  2.2678  0.6177 -0.8104
  225DOPC   H2Y30956  12.192   2.550   2.370  1.5304  0.9097  1.8418
  225DOPC   C2330957  12.520   2.803   2.580  0.4168  0.1380  0.4725
  225DOPC   H3R30958  12.539   2.851   2.679  0.4497  1.5267 -0.1892
  225DOPC   H3S30959  12.593   2.720   2.575 -0.9412 -1.0195 -2.7828
  225DOPC   C2430960  12.392   2.720   2.570 -0.2697 -0.7774  0.2582
  225DOPC   H4R30961  12.375   2.685   2.466 -2.7413 -2.0291  1.0243
  225DOPC   H4S30962  12.317   2.799   2.590  0.0708 -0.0801 -1.0768
  225DOPC   C2530963  12.372   2.605   2.672  0.6495  0.2505  0.2897
  225DOPC   H5R30964  12.458   2.535   2.678 -1.0643 -2.2230 -1.9276
  225DOPC   H5S30965  12.285   2.545   2.640  1.5481 -1.1548  0.3983
  225DOPC   C2630966  12.354   2.669   2.807  0.0087 -0.3133  0.1354
  225DOPC   H6R30967  12.274   2.744   2.795  1.0960  0.5302 -2.3967
  225DOPC   H6S30968  12.451   2.720   2.824  0.2219  0.5689 -3.1183
  225DOPC   C2730969  12.334   2.567   2.920 -0.4397  0.6589  0.9305
  225DOPC   H7R30970  12.397   2.480   2.891 -1.7249  0.1316 -0.3879
  225DOPC   H7S30971  12.233   2.522   2.931  0.2982 -1.6157 -0.8512
  225DOPC   C2830972  12.380   2.627   3.060 -0.4107  0.1977 -0.8986
  225DOPC   H8R30973  12.316   2.717   3.073  1.0610  0.8997  2.5072
  225DOPC   H8S30974  12.487   2.650   3.041 -0.1124 -1.2836 -1.1225
  225DOPC   C2930975  12.343   2.532   3.169 -0.0392 -0.8496 -0.2174
  225DOPC   H9R30976  12.258   2.463   3.155 -0.8999  0.3999 -1.3905
  225DOPC  C21030977  12.383   2.552   3.296 -0.2070 -0.3774 -0.0252
  225DOPC  H10R30978  12.367   2.476   3.374 -2.4791 -0.0520 -0.1252
  225DOPC  C21130979  12.481   2.661   3.329 -0.0916  0.7860  0.7225
  225DOPC  H11R30980  12.502   2.731   3.245 -1.1050 -2.0597 -2.0704
  225DOPC  H11S30981  12.574   2.611   3.364 -0.3278 -0.3963 -0.3025
  225DOPC  C21230982  12.431   2.729   3.461  0.3027  0.0439 -0.5555
  225DOPC  H12R30983  12.341   2.789   3.436 -0.3493 -0.8313 -0.4000
  225DOPC  H12S30984  12.518   2.790   3.492 -0.0263  0.2456 -0.0136
  225DOPC  C21330985  12.410   2.643   3.579  0.3143  0.4168 -1.1812
  225DOPC  H13R30986  12.493   2.568   3.582 -0.2439 -0.1775  0.1634
  225DOPC  H13S30987  12.325   2.571   3.579  0.3997  0.2308  1.3163
  225DOPC  C21430988  12.403   2.715   3.716 -0.4871  0.7951 -0.1738
  225DOPC  H14R30989  12.496   2.773   3.736 -0.1105  0.9252 -2.0833
  225DOPC  H14S30990  12.384   2.628   3.781 -1.8315  0.9881 -0.2952
  225DOPC  C21530991  12.278   2.791   3.734 -0.3051 -0.4161 -0.0745
  225DOPC  H15R30992  12.195   2.726   3.771 -2.4673  1.0198 -2.1167
  225DOPC  H15S30993  12.250   2.844   3.641 -1.7541 -1.2445 -0.1479
  225DOPC  C21630994  12.290   2.897   3.845 -0.2622 -0.1990 -0.4292
  225DOPC  H16R30995  12.366   2.976   3.828 -0.7882  0.8973  1.9263
  225DOPC  H16S30996  12.332   2.844   3.933  1.1731 -0.0733 -1.0071
  225DOPC  C21730997  12.155   2.959   3.880  0.9338  0.0689 -0.6249
  225DOPC  H17R30998  12.088   2.878   3.916 -0.2813  0.2822 -2.2812
  225DOPC  H17S30999  12.094   3.008   3.802 -0.9709  0.6695  1.1724
  225DOPC  C21831000  12.173   3.064   3.988 -0.6072 -0.2116 -0.6817
  225DOPC  H18R31001  12.255   3.134   3.961 -1.3814  1.3139  0.7170
  225DOPC  H18S31002  12.213   3.021   4.082 -0.2826  4.1420  1.4290
  225DOPC  H18T31003  12.080   3.118   4.016  2.9799  5.6630  1.8757
  225DOPC   C3331004  12.132   2.337   2.344 -0.0151  0.4737 -0.1233
  225DOPC   H3X31005  12.180   2.242   2.313 -1.5781 -0.3767 -0.0278
  225DOPC   H3Y31006  12.054   2.361   2.269  0.0916  0.0296 -0.3775
  225DOPC   C3431007  12.055   2.313   2.478  0.1415 -0.1186  0.3185
  225DOPC   H4X31008  12.119   2.256   2.548 -1.1072 -1.7151  0.2198
  225DOPC   H4Y31009  11.974   2.239   2.456 -1.6444  1.6283  0.7011
  225DOPC   C3531010  11.986   2.441   2.529  0.4743  0.1710 -0.2103
  225DOPC   H5X31011  11.917   2.459   2.443  1.1087 -0.9781 -0.9970
  225DOPC   H5Y31012  12.056   2.526   2.514  0.5125 -0.0348 -1.3536
  225DOPC   C3631013  11.918   2.432   2.671 -0.8361  0.1214  0.4637
  225DOPC   H6X31014  11.843   2.512   2.687 -0.5874  0.1244  1.7146
  225DOPC   H6Y31015  11.860   2.337   2.666  1.0277 -1.0028 -1.2706
  225DOPC   C3731016  12.018   2.421   2.788  0.4143  0.3700  0.1610
  225DOPC   H7X31017  12.087   2.334   2.784  1.5617  1.2935 -0.8700
  225DOPC   H7Y31018  12.079   2.513   2.802  1.1547  0.0136 -0.6454
  225DOPC   C3831019  11.933   2.403   2.921  0.0388 -0.2584 -0.1765
  225DOPC   H8X31020  12.010   2.361   2.990  1.1790  3.4026  1.0436
  225DOPC   H8Y31021  11.866   2.317   2.901 -1.3868  0.8119 -0.1589
  225DOPC   C3931022  11.849   2.514   2.980 -0.0727  0.0711 -0.0197
  225DOPC   H9X31023  11.777   2.554   2.908 -0.1185 -1.4773 -0.8752
  225DOPC  C31031024  11.854   2.552   3.112  0.0370 -0.3598  0.2432
  225DOPC  H10X31025  11.785   2.630   3.147 -1.8674 -1.9613  0.2397
  225DOPC  C31131026  11.957   2.514   3.219 -0.0231 -0.1158 -0.2610
  225DOPC  H11X31027  12.023   2.602   3.235  0.5392 -0.8267  1.5566
  225DOPC  H11Y31028  12.032   2.437   3.192  1.2492 -0.3095  3.4034
  225DOPC  C31231029  11.895   2.480   3.350  0.1641 -0.4407 -0.8338
  225DOPC  H12X31030  11.850   2.379   3.339 -1.0473  0.2645 -2.8912
  225DOPC  H12Y31031  11.812   2.550   3.373  0.8510 -0.3435  1.6809
  225DOPC  C31331032  11.992   2.499   3.470 -0.7427 -0.3308 -0.3606
  225DOPC  H13X31033  12.086   2.441   3.462 -0.3911  0.0049  1.0179
  225DOPC  H13Y31034  12.030   2.603   3.481 -0.6179 -0.6184  2.7836
  225DOPC  C31431035  11.935   2.453   3.609 -0.0455 -0.3738 -0.6637
  225DOPC  H14X31036  11.832   2.488   3.631 -0.1342 -1.7441  1.3301
  225DOPC  H14Y31037  11.921   2.342   3.603  0.7181 -0.6865  1.9954
  225DOPC  C31531038  12.026   2.492   3.729 -0.0358  0.9291 -0.1954
  225DOPC  H15X31039  12.021   2.597   3.765 -2.5638  0.0736  2.2940
  225DOPC  H15Y31040  12.128   2.472   3.690  0.4322  2.9127 -0.0647
  225DOPC  C31631041  11.997   2.397   3.843  0.4400  0.0373 -0.2700
  225DOPC  H16X31042  11.893   2.418   3.875  1.0743  0.2177  1.8043
  225DOPC  H16Y31043  11.989   2.288   3.823 -1.9392  0.0478  0.3273
  225DOPC  C31731044  12.087   2.415   3.968  0.0292  0.5461  0.4708
  225DOPC  H17X31045  12.113   2.521   3.988 -1.2019  0.7273  1.2669
  225DOPC  H17Y31046  12.017   2.385   4.049 -2.0482  3.3081 -0.1500
  225DOPC  C31831047  12.211   2.336   3.976 -0.2639 -0.1369 -0.2784
  225DOPC  H18X31048  12.185   2.228   3.967 -0.2065 -0.0550 -1.5486
  225DOPC  H18Y31049  12.263   2.364   3.882  0.0547 -0.2895 -0.1529
  225DOPC  H18Z31050  12.278   2.357   4.062  0.8554 -0.3273 -1.0736
  226DOPC     N31051   4.745   5.952   1.788  0.3653 -0.0810  0.1850
  226DOPC   C1231052   4.747   5.894   1.927 -0.2917 -0.2038  0.0214
  226DOPC  H12A31053   4.849   5.863   1.946 -0.3588 -0.5479 -0.1844
  226DOPC  H12B31054   4.687   5.805   1.916 -0.8965  0.2956 -0.7602
  226DOPC   C1331055   4.799   5.853   1.689  0.0163  0.1205  0.2900
  226DOPC  H13A31056   4.796   5.891   1.588 -0.0422  2.0492  0.9666
  226DOPC  H13B31057   4.899   5.829   1.723  0.3924  2.1744  0.7796
  226DOPC  H13C31058   4.732   5.769   1.682  0.8527 -0.5160 -0.2222
  226DOPC   C1431059   4.824   6.076   1.780 -0.0515 -0.2925  0.3338
  226DOPC  H14A31060   4.807   6.111   1.679 -0.3958 -0.2986  0.3904
  226DOPC  H14B31061   4.792   6.162   1.837  1.4441  0.9665 -0.6405
  226DOPC  H14C31062   4.930   6.056   1.792 -0.4900 -2.1079  1.4741
  226DOPC   C1531063   4.598   5.987   1.746 -0.0738 -1.1435  0.0536
  226DOPC  H15A31064   4.531   5.903   1.732 -0.1212 -1.8938  3.7098
  226DOPC  H15B31065   4.597   6.050   1.658 -1.3334 -0.6568  0.3934
  226DOPC  H15C31066   4.565   6.045   1.830  2.7591 -1.2516  1.3773
  226DOPC   C1131067   4.710   5.989   2.045  0.1870  0.4348  0.0343
  226DOPC  H11A31068   4.768   6.082   2.028  3.2644 -0.9559  2.0128
  226DOPC  H11B31069   4.602   6.015   2.053  0.0436 -0.4664  1.2356
  226DOPC     P31070   4.688   5.814   2.226 -0.3935 -0.3256 -0.0748
  226DOPC   O1331071   4.784   5.700   2.244  0.4544 -0.4493 -0.0910
  226DOPC   O1431072   4.563   5.784   2.159  0.8717 -0.2294 -0.0258
  226DOPC   O1231073   4.760   5.937   2.160  0.3083  0.0702  0.2165
  226DOPC   O1131074   4.651   5.875   2.367  0.6747 -0.2059  0.5514
  226DOPC    C131075   4.586   6.009   2.378 -0.0040  0.3906 -0.9482
  226DOPC    HA31076   4.488   6.004   2.325 -1.0643 -3.2602  1.0074
  226DOPC    HB31077   4.647   6.089   2.332 -0.4853  0.6054 -1.2203
  226DOPC    C231078   4.554   6.046   2.525 -0.2831 -0.1497  0.2671
  226DOPC    HS31079   4.545   6.157   2.526  0.6614 -0.0650  1.2577
  226DOPC   O2131080   4.664   5.995   2.598  0.0716  0.3965 -0.3494
  226DOPC   C2131081   4.789   6.043   2.583  0.2453  0.0939  0.0352
  226DOPC   O2231082   4.820   6.123   2.499  0.1700  0.5017  0.1589
  226DOPC   C2231083   4.882   5.984   2.683 -0.8888  0.8922  0.3105
  226DOPC   H2R31084   4.986   6.015   2.661  0.4544 -2.9357  0.4719
  226DOPC   H2S31085   4.885   5.875   2.660 -2.2517  0.4130  2.1264
  226DOPC    C331086   4.423   5.974   2.574  0.2434 -0.0546 -0.0584
  226DOPC    HX31087   4.441   5.865   2.576 -2.6533 -0.5969 -0.2354
  226DOPC    HY31088   4.348   5.988   2.493  0.9677  1.1941 -0.5631
  226DOPC   O3131089   4.387   6.011   2.714 -0.2278 -0.0857  0.7502
  226DOPC   C3131090   4.320   6.129   2.710  0.5054  0.3546 -0.7064
  226DOPC   O3231091   4.285   6.192   2.611 -0.2247 -0.2576  0.0342
  226DOPC   C3231092   4.299   6.163   2.854  0.0395 -0.2825 -0.0723
  226DOPC   H2X31093   4.277   6.072   2.913  1.2695  0.2801  1.3174
  226DOPC   H2Y31094   4.399   6.198   2.887 -0.6927 -0.4387  2.4968
  226DOPC   C2331095   4.839   5.996   2.824  0.7248 -0.3625 -0.1240
  226DOPC   H3R31096   4.747   5.935   2.838  0.9600 -0.9443 -1.0383
  226DOPC   H3S31097   4.814   6.104   2.838  1.3559 -0.1578 -0.5565
  226DOPC   C2431098   4.936   5.952   2.927  0.5501  0.0696  0.0410
  226DOPC   H4R31099   5.037   5.989   2.899  1.3794 -2.4416 -0.5546
  226DOPC   H4S31100   4.927   5.841   2.923 -3.5322  0.2184  0.1647
  226DOPC   C2531101   4.897   6.007   3.063  0.3575  0.3518  0.3005
  226DOPC   H5R31102   4.791   5.977   3.070  0.7780 -2.9124 -3.7178
  226DOPC   H5S31103   4.916   6.117   3.065 -1.2732  0.6682  2.7854
  226DOPC   C2631104   4.988   5.934   3.161  0.0336 -0.1202 -0.8430
  226DOPC   H6R31105   5.092   5.973   3.159  0.8432 -2.1120  0.0743
  226DOPC   H6S31106   5.011   5.829   3.133 -1.3370 -0.3366 -1.2391
  226DOPC   C2731107   4.949   5.935   3.312 -0.0323 -0.0658 -0.5882
  226DOPC   H7R31108   5.017   5.874   3.375 -0.7308  0.7670  1.0248
  226DOPC   H7S31109   4.844   5.902   3.324  0.3379 -0.6702  1.3211
  226DOPC   C2831110   4.961   6.080   3.365  0.7750 -0.1931 -0.2986
  226DOPC   H8R31111   4.900   6.137   3.292  0.1835 -0.8543 -0.3333
  226DOPC   H8S31112   5.068   6.109   3.363  1.0264 -1.0458  0.2011
  226DOPC   C2931113   4.905   6.105   3.503 -0.3252  0.5775 -0.8002
  226DOPC   H9R31114   4.979   6.095   3.584  0.0627 -0.2525 -1.2487
  226DOPC  C21031115   4.776   6.146   3.535  0.0070 -0.3566  0.0115
  226DOPC  H10R31116   4.738   6.149   3.638 -0.7176 -0.1505 -0.2533
  226DOPC  C21131117   4.665   6.167   3.436 -0.6729 -0.0033 -0.4877
  226DOPC  H11R31118   4.576   6.107   3.462 -1.1853  0.9948  0.1147
  226DOPC  H11S31119   4.700   6.130   3.337  0.8200 -2.1423  0.7561
  226DOPC  C21231120   4.614   6.308   3.413 -0.4640 -0.6827  0.0268
  226DOPC  H12R31121   4.692   6.383   3.387 -2.5292  1.0058 -1.6450
  226DOPC  H12S31122   4.556   6.346   3.500 -0.3307 -0.0791 -0.1370
  226DOPC  C21331123   4.509   6.310   3.303  0.7303  0.2601 -0.1534
  226DOPC  H13R31124   4.476   6.416   3.298  3.4022  1.1213 -0.9278
  226DOPC  H13S31125   4.427   6.239   3.327  2.0826 -2.4865 -2.9777
  226DOPC  C21431126   4.553   6.267   3.163  0.1150  0.3515  0.3380
  226DOPC  H14R31127   4.473   6.270   3.085  0.2197 -0.4864  0.1901
  226DOPC  H14S31128   4.597   6.166   3.156 -1.0202 -0.0760 -1.9271
  226DOPC  C21531129   4.674   6.357   3.129  0.3229 -0.5413 -0.5584
  226DOPC  H15R31130   4.757   6.314   3.188 -1.0825 -2.8918 -0.1823
  226DOPC  H15S31131   4.664   6.459   3.173  0.7133 -0.0431 -1.5854
  226DOPC  C21631132   4.712   6.362   2.985  0.1984 -0.4536 -0.1274
  226DOPC  H16R31133   4.692   6.267   2.931 -1.6411  0.4318 -1.0967
  226DOPC  H16S31134   4.820   6.388   2.983  0.2662 -0.3024  2.1651
  226DOPC  C21731135   4.640   6.474   2.907  0.0403  0.3233  0.6368
  226DOPC  H17R31136   4.720   6.518   2.843  0.4818 -0.6983  0.4643
  226DOPC  H17S31137   4.600   6.557   2.969 -2.2508  0.1866 -0.5705
  226DOPC  C21831138   4.523   6.439   2.809 -0.2297 -0.1017 -0.2878
  226DOPC  H18R31139   4.496   6.527   2.748  1.1943  0.5680  0.0248
  226DOPC  H18S31140   4.431   6.414   2.867 -0.3925 -1.1891 -0.9880
  226DOPC  H18T31141   4.546   6.354   2.741 -0.0698 -0.0598 -0.2865
  226DOPC   C3331142   4.193   6.264   2.882 -0.3631 -0.3565  0.3214
  226DOPC   H3X31143   4.209   6.365   2.839 -1.6166 -1.0241 -1.8432
  226DOPC   H3Y31144   4.187   6.287   2.991  1.3839 -0.3717  0.4485
  226DOPC   C3431145   4.048   6.231   2.840 -0.5123  0.3642 -0.2550
  226DOPC   H4X31146   4.036   6.121   2.853  1.8601  0.0541 -0.2962
  226DOPC   H4Y31147   4.038   6.259   2.733 -1.7050  1.1204  0.0389
  226DOPC   C3531148   3.945   6.315   2.917 -0.2339 -0.0160 -0.2434
  226DOPC   H5X31149   3.880   6.375   2.850 -0.6096  0.1816  0.2876
  226DOPC   H5Y31150   4.003   6.386   2.980  0.6533 -1.3273  0.4579
  226DOPC   C3631151   3.860   6.228   3.015  0.5190 -0.2455  0.7710
  226DOPC   H6X31152   3.793   6.301   3.065  2.3310  1.7946  0.3669
  226DOPC   H6Y31153   3.803   6.152   2.957  0.3007 -0.1078  0.8024
  226DOPC   C3731154   3.935   6.145   3.116  0.1071  0.6966  0.0879
  226DOPC   H7X31155   3.927   6.037   3.093  0.6540  0.3719  1.3304
  226DOPC   H7Y31156   4.040   6.180   3.104 -0.1382  1.2201 -0.5944
  226DOPC   C3831157   3.910   6.176   3.268  0.0396  0.2133  0.6469
  226DOPC   H8X31158   3.942   6.281   3.285  0.0742  0.7017 -2.0160
  226DOPC   H8Y31159   3.977   6.109   3.325  0.9426  0.3492 -0.2133
  226DOPC   C3931160   3.768   6.151   3.304  0.1623 -0.2772  0.0386
  226DOPC   H9X31161   3.693   6.163   3.224 -2.9737 -1.4000  2.6066
  226DOPC  C31031162   3.725   6.104   3.420 -0.6731 -0.9921 -0.0192
  226DOPC  H10X31163   3.615   6.106   3.425 -0.7723  1.1281 -1.8425
  226DOPC  C31131164   3.812   6.081   3.548 -0.2964  0.3795  0.6960
  226DOPC  H11X31165   3.913   6.126   3.539 -0.7160  1.1808 -0.1281
  226DOPC  H11Y31166   3.823   5.971   3.556  2.5539  0.5091 -0.3743
  226DOPC  C31231167   3.733   6.129   3.676 -0.9359  0.2262 -0.2256
  226DOPC  H12X31168   3.634   6.077   3.678  0.7507 -3.2866 -0.3467
  226DOPC  H12Y31169   3.717   6.239   3.676 -3.0377  0.0092  2.2147
  226DOPC  C31331170   3.802   6.105   3.812  0.2162 -0.3651  0.3364
  226DOPC  H13X31171   3.820   5.997   3.826  3.4019 -0.3189 -2.1139
  226DOPC  H13Y31172   3.898   6.158   3.833 -0.8769  1.1229  1.8312
  226DOPC  C31431173   3.694   6.136   3.918  0.5742 -0.5323 -0.5735
  226DOPC  H14X31174   3.672   6.245   3.916  0.9556 -0.4312  0.0982
  226DOPC  H14Y31175   3.597   6.083   3.909  0.0784  0.6498 -2.9277
  226DOPC  C31531176   3.748   6.103   4.057  0.0262 -0.8395  0.8836
  226DOPC  H15X31177   3.845   6.146   4.089 -0.5169 -0.5117  2.1525
  226DOPC  H15Y31178   3.752   5.993   4.071  0.9659 -1.3672 -2.6154
  226DOPC  C31631179   3.659   6.165   4.168  0.1702  0.8270 -1.1190
  226DOPC  H16X31180   3.554   6.131   4.160  0.5411 -0.3013 -1.2919
  226DOPC  H16Y31181   3.700   6.129   4.264 -0.7496 -1.5914 -1.5619
  226DOPC  C31731182   3.667   6.318   4.172  0.1887  1.1657 -0.1921
  226DOPC  H17X31183   3.774   6.349   4.177  0.2333  1.0960 -0.6893
  226DOPC  H17Y31184   3.617   6.367   4.086  0.9703  0.3465 -1.1337
  226DOPC  C31831185   3.604   6.383   4.294 -0.6510 -0.6831  1.0244
  226DOPC  H18X31186   3.598   6.492   4.273  1.7232 -0.5316  0.8728
  226DOPC  H18Y31187   3.498   6.350   4.307 -1.3600  0.7460 -0.6918
  226DOPC  H18Z31188   3.659   6.367   4.389 -0.7828 -0.8029  1.0813
  227DOPC     N31189   5.520   3.666   1.566  0.3436 -0.2304 -0.6686
  227DOPC   C1231190   5.489   3.521   1.528  0.2858 -0.4103  0.0776
  227DOPC  H12A31191   5.579   3.463   1.527  0.5636 -0.1262 -3.0522
  227DOPC  H12B31192   5.457   3.516   1.424 -0.1174  0.0877  0.1695
  227DOPC   C1331193   5.581   3.728   1.443 -0.3670 -0.4645  0.8303
  227DOPC  H13A31194   5.513   3.729   1.360  1.3924  1.0959 -0.6714
  227DOPC  H13B31195   5.613   3.829   1.461 -1.2802  0.3825 -1.9197
  227DOPC  H13C31196   5.662   3.665   1.409 -0.3502  0.6090 -1.2155
  227DOPC   C1431197   5.609   3.674   1.692  0.3683 -0.4237 -0.2351
  227DOPC  H14A31198   5.707   3.633   1.671  1.2187  0.8819  0.9530
  227DOPC  H14B31199   5.627   3.774   1.728 -0.0769 -1.1413  2.1321
  227DOPC  H14C31200   5.559   3.625   1.774  0.3026 -0.2323 -0.1599
  227DOPC   C1531201   5.391   3.735   1.597 -0.2668  0.6523  0.0832
  227DOPC  H15A31202   5.413   3.833   1.637 -0.7831  0.7736  0.0753
  227DOPC  H15B31203   5.337   3.678   1.670  0.3739 -0.2398 -0.1146
  227DOPC  H15C31204   5.324   3.736   1.512 -2.5041 -1.1762  1.7013
  227DOPC   C1131205   5.380   3.447   1.608  0.3487 -0.2966  0.1163
  227DOPC  H11A31206   5.280   3.490   1.584 -0.1860 -0.1391  2.4257
  227DOPC  H11B31207   5.381   3.342   1.569 -1.6762  0.0337 -0.9874
  227DOPC     P31208   5.295   3.445   1.860  0.1623  0.2491  0.1085
  227DOPC   O1331209   5.264   3.311   1.902  0.9252 -0.0037 -0.5350
  227DOPC   O1431210   5.178   3.518   1.804  0.4307 -0.7644  0.0287
  227DOPC   O1231211   5.411   3.437   1.750 -0.2261 -0.3787  0.1981
  227DOPC   O1131212   5.366   3.525   1.969 -0.2160  0.3387 -0.3040
  227DOPC    C131213   5.441   3.463   2.073  0.1149  0.5509 -0.3505
  227DOPC    HA31214   5.523   3.531   2.103  2.1496 -1.6634 -0.5790
  227DOPC    HB31215   5.494   3.371   2.040 -0.8300 -0.3827  0.6243
  227DOPC    C231216   5.358   3.437   2.199  0.0203 -0.0698 -0.0285
  227DOPC    HS31217   5.292   3.350   2.180 -1.1047  0.6898  0.3175
  227DOPC   O2131218   5.292   3.556   2.258 -0.0774 -0.2785  0.6301
  227DOPC   C2131219   5.162   3.551   2.256  0.0227  0.4740  0.2194
  227DOPC   O2231220   5.099   3.446   2.237  0.1885 -1.1650 -0.2031
  227DOPC   C2231221   5.097   3.675   2.311  0.1673 -0.0797 -0.2005
  227DOPC   H2R31222   5.098   3.750   2.229  0.6323 -1.9983 -2.0498
  227DOPC   H2S31223   5.153   3.715   2.398 -0.1494  0.0455 -0.0527
  227DOPC    C331224   5.446   3.373   2.308 -0.9056 -0.3731 -0.8007
  227DOPC    HX31225   5.528   3.442   2.338 -0.8721 -0.5871 -0.3869
  227DOPC    HY31226   5.493   3.283   2.264 -0.3105  0.0263 -0.9845
  227DOPC   O3131227   5.370   3.346   2.430 -0.1376 -0.8412  0.4340
  227DOPC   C3131228   5.296   3.237   2.430  0.6185 -0.0826 -0.0339
  227DOPC   O3231229   5.296   3.155   2.334 -0.0855  0.0469 -0.0218
  227DOPC   C3231230   5.226   3.204   2.562 -0.6443 -0.3751 -0.3925
  227DOPC   H2X31231   5.117   3.206   2.543 -1.1272  0.8294  2.0005
  227DOPC   H2Y31232   5.261   3.104   2.597  0.5988 -0.2557 -1.2437
  227DOPC   C2331233   4.951   3.650   2.353 -1.3408 -0.1910  0.3415
  227DOPC   H3R31234   4.894   3.585   2.283  1.3953 -3.9234  1.2717
  227DOPC   H3S31235   4.906   3.752   2.359  1.8500  1.2425  2.3733
  227DOPC   C2431236   4.938   3.588   2.496 -0.1512 -0.8289 -0.0623
  227DOPC   H4R31237   5.004   3.501   2.518  2.8836  1.7486  2.0489
  227DOPC   H4S31238   4.830   3.562   2.502 -0.6264  1.0776  0.6379
  227DOPC   C2531239   4.961   3.690   2.615  0.0668 -0.0903  0.5291
  227DOPC   H5R31240   4.943   3.795   2.585  1.2361  0.3867  1.3994
  227DOPC   H5S31241   5.069   3.686   2.641  0.0550 -0.2145  0.5615
  227DOPC   C2631242   4.883   3.644   2.738  0.2375  0.4827 -0.0436
  227DOPC   H6R31243   4.919   3.542   2.763 -0.1190  0.9379  2.5400
  227DOPC   H6S31244   4.776   3.641   2.706  0.3948 -0.7408 -0.5231
  227DOPC   C2731245   4.910   3.732   2.864  0.2300  0.6724  0.4150
  227DOPC   H7R31246   4.861   3.829   2.844  1.9287  1.1420 -1.9082
  227DOPC   H7S31247   5.015   3.766   2.880  0.1359  0.3452  1.7911
  227DOPC   C2831248   4.861   3.685   3.006  0.2632  0.5917  0.2435
  227DOPC   H8R31249   4.840   3.777   3.065 -3.2383  0.1512 -0.1357
  227DOPC   H8S31250   4.951   3.645   3.057  0.2175  0.3726  0.1511
  227DOPC   C2931251   4.743   3.592   3.007 -0.0358 -1.0262  0.2127
  227DOPC   H9R31252   4.764   3.485   3.000  1.1293 -0.7056 -2.8889
  227DOPC  C21031253   4.619   3.644   2.991  0.5309  0.5778  0.6131
  227DOPC  H10R31254   4.531   3.578   3.004  1.1094 -0.0785  1.2865
  227DOPC  C21131255   4.592   3.790   2.975 -0.2854 -0.8587 -0.6503
  227DOPC  H11R31256   4.499   3.809   2.917  0.3644 -0.9927 -1.7615
  227DOPC  H11S31257   4.675   3.840   2.921 -1.1597 -2.0316 -3.2458
  227DOPC  C21231258   4.584   3.855   3.114 -0.3839  0.2835 -0.3514
  227DOPC  H12R31259   4.561   3.962   3.094 -2.7984  0.7322  3.6584
  227DOPC  H12S31260   4.673   3.842   3.180 -1.5479 -1.4243  0.9842
  227DOPC  C21331261   4.478   3.794   3.213  0.3069 -0.7381  0.0081
  227DOPC  H13R31262   4.501   3.689   3.240 -0.0034 -0.9506 -0.5394
  227DOPC  H13S31263   4.375   3.802   3.173  0.6670  1.0503 -0.6537
  227DOPC  C21431264   4.475   3.860   3.347  0.0596 -0.1782 -0.6098
  227DOPC  H14R31265   4.467   3.971   3.347  0.6071 -0.0450  2.4808
  227DOPC  H14S31266   4.575   3.836   3.389 -0.7386 -4.5003 -0.7497
  227DOPC  C21531267   4.366   3.801   3.435  0.3829  0.2226  0.0903
  227DOPC  H15R31268   4.383   3.691   3.436  2.9697  0.5241 -1.4743
  227DOPC  H15S31269   4.265   3.818   3.390 -0.0468  0.9435  1.2813
  227DOPC  C21631270   4.347   3.873   3.572 -0.3640  0.0908  0.0105
  227DOPC  H16R31271   4.371   3.978   3.542  1.7580 -1.3972 -4.4100
  227DOPC  H16S31272   4.428   3.826   3.633 -1.1855 -4.7117 -2.1646
  227DOPC  C21731273   4.206   3.843   3.627  0.2366 -0.1386 -0.7591
  227DOPC  H17R31274   4.195   3.736   3.652  1.7835  0.0650  1.0577
  227DOPC  H17S31275   4.126   3.871   3.554 -0.6291  0.6563  0.4486
  227DOPC  C21831276   4.170   3.930   3.748  0.4608  0.3464  0.1423
  227DOPC  H18R31277   4.163   4.039   3.724  0.7818  0.1958 -0.6481
  227DOPC  H18S31278   4.252   3.924   3.823 -0.4487  0.7902  1.2021
  227DOPC  H18T31279   4.074   3.889   3.784  0.3214  0.6776  0.1545
  227DOPC   C3331280   5.258   3.308   2.673 -0.2516 -0.2483 -1.0272
  227DOPC   H3X31281   5.198   3.395   2.641 -2.5314 -2.3580 -2.8416
  227DOPC   H3Y31282   5.364   3.340   2.680 -0.1591 -0.8821  1.7211
  227DOPC   C3431283   5.191   3.260   2.801 -0.8348 -0.0507  0.2206
  227DOPC   H4X31284   5.198   3.150   2.811  0.6209  0.1378  1.8814
  227DOPC   H4Y31285   5.082   3.274   2.789 -1.5014 -2.5369  2.5473
  227DOPC   C3531286   5.244   3.325   2.929 -0.2616  0.0414  0.9958
  227DOPC   H5X31287   5.349   3.302   2.956  0.3450  1.6860  0.1533
  227DOPC   H5Y31288   5.187   3.279   3.012  1.5233  1.7470  3.2923
  227DOPC   C3631289   5.227   3.476   2.939 -0.2184  0.0341 -0.3264
  227DOPC   H6X31290   5.293   3.530   2.868  0.1904  2.6816  1.9042
  227DOPC   H6Y31291   5.127   3.511   2.904  0.4148  2.4076  0.0450
  227DOPC   C3731292   5.264   3.538   3.079  0.0199  0.1015  0.4407
  227DOPC   H7X31293   5.371   3.517   3.096  0.5318  1.6510 -0.6617
  227DOPC   H7Y31294   5.241   3.646   3.074 -0.5483 -0.0631 -1.0914
  227DOPC   C3831295   5.169   3.478   3.191 -0.1377  0.9286  0.2086
  227DOPC   H8X31296   5.162   3.367   3.189  0.0374  0.8113  3.0073
  227DOPC   H8Y31297   5.066   3.514   3.167 -1.0257 -0.0052  2.4224
  227DOPC   C3931298   5.208   3.538   3.320 -0.0203  0.4346  0.3630
  227DOPC   H9X31299   5.241   3.641   3.302 -0.2196  0.0693 -2.4718
  227DOPC  C31031300   5.212   3.466   3.439 -0.3544  0.1086  0.2126
  227DOPC  H10X31301   5.262   3.504   3.529 -2.1322  0.5228  1.0758
  227DOPC  C31131302   5.156   3.331   3.464  0.4721 -0.1895  0.4764
  227DOPC  H11X31303   5.157   3.267   3.373  0.3129  1.3674 -0.6712
  227DOPC  H11Y31304   5.050   3.332   3.496  0.2769 -0.6124 -0.1373
  227DOPC  C31231305   5.229   3.267   3.589  1.1456 -0.4571 -0.0900
  227DOPC  H12X31306   5.171   3.180   3.626 -1.2636  1.1117  0.0674
  227DOPC  H12Y31307   5.220   3.342   3.671  0.4285 -0.8510  0.2066
  227DOPC  C31331308   5.374   3.232   3.562  0.6007  0.0210  0.0183
  227DOPC  H13X31309   5.384   3.204   3.455 -1.9400  1.3962 -0.6727
  227DOPC  H13Y31310   5.440   3.320   3.575  1.5777 -0.4814 -1.4059
  227DOPC  C31431311   5.431   3.124   3.653  0.5289  0.3258  0.0881
  227DOPC  H14X31312   5.381   3.028   3.625 -1.8538  1.9443 -1.5521
  227DOPC  H14Y31313   5.538   3.113   3.626  0.4179 -0.7262  0.0054
  227DOPC  C31531314   5.413   3.143   3.806 -0.2657  0.1728  0.1643
  227DOPC  H15X31315   5.309   3.166   3.838  0.0688  1.0658  0.6484
  227DOPC  H15Y31316   5.469   3.235   3.834  0.2344 -0.4762  1.3260
  227DOPC  C31631317   5.483   3.039   3.889  0.2219 -0.8054  0.3910
  227DOPC  H16X31318   5.458   3.064   3.994 -1.6949  2.2488 -0.6297
  227DOPC  H16Y31319   5.452   2.935   3.867  1.1873 -0.2888 -4.7976
  227DOPC  C31731320   5.636   3.047   3.876  0.1401 -0.2281  0.4875
  227DOPC  H17X31321   5.668   3.016   3.775 -0.5560 -0.3061  0.2874
  227DOPC  H17Y31322   5.672   3.152   3.887  0.4960  0.0815 -2.8379
  227DOPC  C31831323   5.686   2.964   3.992  0.1531  0.3002 -0.5024
  227DOPC  H18X31324   5.656   3.005   4.091  0.0097  0.8734 -0.7815
  227DOPC  H18Y31325   5.652   2.859   3.975 -0.6979  0.4062  0.4833
  227DOPC  H18Z31326   5.796   2.971   4.006 -0.0332 -0.3233  1.6801
  228DOPC     N31327   3.781   8.410   1.773 -0.0567  0.0738  0.1137
  228DOPC   C1231328   3.745   8.351   1.904 -0.5559 -0.8668 -0.2017
  228DOPC  H12A31329   3.770   8.422   1.981  0.8444 -1.5306 -0.0095
  228DOPC  H12B31330   3.808   8.265   1.922  0.0637 -0.0621  1.7595
  228DOPC   C1331331   3.697   8.531   1.740  0.5958  0.3034 -0.2258
  228DOPC  H13A31332   3.595   8.498   1.755  0.7093 -0.1161 -0.3570
  228DOPC  H13B31333   3.712   8.613   1.808 -1.6726 -0.3426  1.1445
  228DOPC  H13C31334   3.712   8.561   1.638 -0.8443  0.9743 -0.2635
  228DOPC   C1431335   3.774   8.316   1.660  0.0995 -0.4170  0.5911
  228DOPC  H14A31336   3.828   8.225   1.685 -1.4740 -1.5051  0.1645
  228DOPC  H14B31337   3.672   8.284   1.642 -0.3813  1.6655 -0.7531
  228DOPC  H14C31338   3.813   8.351   1.565  0.7853 -1.3667  0.5044
  228DOPC   C1531339   3.924   8.458   1.784  0.4673  0.0192  1.0102
  228DOPC  H15A31340   3.932   8.527   1.867 -0.8568 -1.0074  2.0329
  228DOPC  H15B31341   3.959   8.499   1.691 -0.6326 -4.4682 -1.6609
  228DOPC  H15C31342   3.993   8.379   1.810  0.8961 -0.5686 -1.6808
  228DOPC   C1131343   3.605   8.287   1.919 -0.5727  0.1130  0.2202
  228DOPC  H11A31344   3.592   8.217   1.833  0.8683 -0.0007  0.0638
  228DOPC  H11B31345   3.616   8.226   2.011 -0.7372  2.0125  1.5447
  228DOPC     P31346   3.357   8.347   1.871  0.0570  0.0019  0.0676
  228DOPC   O1331347   3.374   8.307   1.733  0.1689  0.4655 -0.4372
  228DOPC   O1431348   3.263   8.461   1.888 -0.0051 -0.1148  1.0243
  228DOPC   O1231349   3.497   8.380   1.936 -0.1864 -0.2953 -0.1669
  228DOPC   O1131350   3.292   8.225   1.953 -0.2258  0.3327 -0.0943
  228DOPC    C131351   3.240   8.258   2.082 -0.0287  0.3653 -0.2452
  228DOPC    HA31352   3.178   8.171   2.115  2.1367 -1.5821 -1.0282
  228DOPC    HB31353   3.165   8.339   2.078 -0.9826 -0.5180 -0.9646
  228DOPC    C231354   3.340   8.280   2.197  0.3260 -0.9599  0.5385
  228DOPC    HS31355   3.397   8.375   2.185 -0.0321 -0.8745 -0.5780
  228DOPC   O2131356   3.424   8.163   2.203  0.0288  0.7628  0.3122
  228DOPC   C2131357   3.533   8.178   2.272 -0.4130  0.8356 -0.1744
  228DOPC   O2231358   3.572   8.289   2.311  0.1267 -0.1529  0.3780
  228DOPC   C2231359   3.593   8.042   2.301 -0.7762 -0.1829 -0.3884
  228DOPC   H2R31360   3.664   8.022   2.217 -0.1217  0.2108  0.0629
  228DOPC   H2S31361   3.514   7.964   2.305 -1.2123  0.3212  1.1425
  228DOPC    C331362   3.251   8.299   2.324  0.4462 -0.6205  0.7249
  228DOPC    HX31363   3.190   8.206   2.335  0.8344 -0.8983  0.5656
  228DOPC    HY31364   3.177   8.379   2.304  0.1064 -0.6254  1.8681
  228DOPC   O3131365   3.331   8.313   2.443 -0.0483 -0.3741  0.0919
  228DOPC   C3131366   3.369   8.441   2.477  0.6964 -0.2207  0.0471
  228DOPC   O3231367   3.342   8.542   2.422 -0.2901 -0.1493  0.9956
  228DOPC   C3231368   3.428   8.431   2.617  0.3476  0.5561 -0.2345
  228DOPC   H2X31369   3.354   8.383   2.685  1.9018 -1.5222  0.1179
  228DOPC   H2Y31370   3.513   8.359   2.606  1.0054  1.2816  0.0486
  228DOPC   C2331371   3.676   8.027   2.440  0.5441  0.1731 -0.2576
  228DOPC   H3R31372   3.760   8.099   2.446  0.0392  0.7029  0.8431
  228DOPC   H3S31373   3.729   7.929   2.434 -1.3543 -0.8791 -0.9759
  228DOPC   C2431374   3.595   8.038   2.569  0.4769  0.2787  0.0766
  228DOPC   H4R31375   3.558   7.938   2.601 -1.5908  1.1868  0.7352
  228DOPC   H4S31376   3.508   8.106   2.555  0.2381 -0.0475 -0.0382
  228DOPC   C2531377   3.685   8.096   2.682 -0.2016  0.4584  0.5090
  228DOPC   H5R31378   3.696   8.205   2.661  1.1961  0.2299 -0.1099
  228DOPC   H5S31379   3.788   8.054   2.679 -0.1583  0.3926  2.1916
  228DOPC   C2631380   3.624   8.077   2.827  0.0803  0.2279  0.5684
  228DOPC   H6R31381   3.605   7.969   2.841 -0.1018  0.0059 -1.1813
  228DOPC   H6S31382   3.523   8.124   2.818 -1.2194 -2.6143 -1.1709
  228DOPC   C2731383   3.700   8.143   2.941 -0.2591 -0.2509 -0.2863
  228DOPC   H7R31384   3.722   8.249   2.917  2.4396 -0.2688  1.6457
  228DOPC   H7S31385   3.799   8.093   2.953  0.2144  0.6575 -0.2811
  228DOPC   C2831386   3.621   8.123   3.078 -0.0004  0.2416  0.2488
  228DOPC   H8R31387   3.622   8.012   3.082 -1.1453  0.2278  0.3946
  228DOPC   H8S31388   3.519   8.166   3.067  0.4356  1.4430  0.7817
  228DOPC   C2931389   3.685   8.182   3.202  0.2883  0.1065  0.6870
  228DOPC   H9R31390   3.734   8.280   3.192  1.1695 -0.3809  0.0794
  228DOPC  C21031391   3.692   8.122   3.327  0.0843  0.6940  0.9441
  228DOPC  H10R31392   3.739   8.180   3.407  2.7020  1.7540 -1.2088
  228DOPC  C21131393   3.644   7.988   3.372  0.4155  0.0249  0.4585
  228DOPC  H11R31394   3.730   7.936   3.419  1.4271 -0.6413 -2.0109
  228DOPC  H11S31395   3.617   7.929   3.282  2.2729  0.2314 -0.2742
  228DOPC  C21231396   3.531   8.030   3.470  0.3392 -0.0756  0.7419
  228DOPC  H12R31397   3.453   8.081   3.409  0.1241 -0.8099  0.3881
  228DOPC  H12S31398   3.560   8.090   3.559 -2.2796  1.1835  0.8257
  228DOPC  C21331399   3.466   7.906   3.528  0.2387  0.1663 -0.6375
  228DOPC  H13R31400   3.545   7.842   3.572  1.4245  1.4463 -0.8195
  228DOPC  H13S31401   3.415   7.842   3.454  0.3233  0.0049 -0.5569
  228DOPC  C21431402   3.361   7.931   3.640 -0.4559 -0.2260 -0.0545
  228DOPC  H14R31403   3.267   7.968   3.594 -0.0342 -0.3956 -1.0651
  228DOPC  H14S31404   3.396   8.014   3.705 -0.5440 -0.5661  0.4382
  228DOPC  C21531405   3.325   7.810   3.727 -0.0154  0.5075  0.3153
  228DOPC  H15R31406   3.422   7.783   3.776  0.6845  0.5366 -1.0037
  228DOPC  H15S31407   3.304   7.733   3.650  2.4509  1.3669 -1.3592
  228DOPC  C21631408   3.230   7.848   3.836  0.4154 -0.4121 -0.4330
  228DOPC  H16R31409   3.153   7.921   3.805  1.1947  0.4858 -0.3059
  228DOPC  H16S31410   3.291   7.915   3.900 -0.7732  1.1563 -0.8895
  228DOPC  C21731411   3.157   7.735   3.890  0.4509 -0.0476 -0.0714
  228DOPC  H17R31412   3.223   7.646   3.899  0.3419 -0.1729 -0.5087
  228DOPC  H17S31413   3.085   7.698   3.813 -2.3574  2.8499  0.9135
  228DOPC  C21831414   3.083   7.751   4.019 -0.4880  0.1411 -0.3299
  228DOPC  H18R31415   3.032   7.660   4.057  1.2700 -0.8259 -0.1779
  228DOPC  H18S31416   3.008   7.834   4.013  0.6099  1.1189 -1.0557
  228DOPC  H18T31417   3.150   7.764   4.106 -0.2480  1.7704 -0.7185
  228DOPC   C3331418   3.481   8.559   2.690 -0.2019 -0.4829  0.2507
  228DOPC   H3X31419   3.422   8.649   2.662 -1.4630 -1.1250  0.7049
  228DOPC   H3Y31420   3.584   8.590   2.665 -0.2988  0.7799  1.3007
  228DOPC   C3431421   3.480   8.525   2.840 -0.3013 -0.4165  0.3685
  228DOPC   H4X31422   3.570   8.463   2.859  0.7580  1.0098  0.1598
  228DOPC   H4Y31423   3.389   8.483   2.888 -0.4150 -0.0237  0.4980
  228DOPC   C3531424   3.517   8.646   2.937 -0.0597 -0.3516  0.1258
  228DOPC   H5X31425   3.443   8.729   2.936 -0.9432 -1.0800 -2.2019
  228DOPC   H5Y31426   3.609   8.693   2.897  0.5186 -1.3665  0.2154
  228DOPC   C3631427   3.549   8.596   3.080 -0.2791  0.5032 -0.5243
  228DOPC   H6X31428   3.631   8.523   3.063  0.9457  0.7986  3.1629
  228DOPC   H6Y31429   3.586   8.682   3.140  3.5052 -0.0153 -1.8639
  228DOPC   C3731430   3.431   8.534   3.152  0.1188  0.6385 -0.4197
  228DOPC   H7X31431   3.350   8.609   3.151 -1.4511 -0.9838  0.1674
  228DOPC   H7Y31432   3.395   8.437   3.113 -0.5007 -1.4947  4.7105
  228DOPC   C3831433   3.468   8.511   3.301 -0.4453  0.8143 -0.4052
  228DOPC   H8X31434   3.453   8.602   3.363  1.0875 -0.2061  1.5506
  228DOPC   H8Y31435   3.579   8.503   3.302 -0.5103 -0.5919 -1.6000
  228DOPC   C3931436   3.406   8.387   3.360 -0.3238 -0.3210 -0.0811
  228DOPC   H9X31437   3.396   8.307   3.286  1.0998 -0.6045  0.0024
  228DOPC  C31031438   3.375   8.368   3.491  0.3353  0.2241  0.3105
  228DOPC  H10X31439   3.320   8.276   3.516  1.0111 -0.2175  0.1881
  228DOPC  C31131440   3.370   8.482   3.591 -0.6497 -0.3858  0.0295
  228DOPC  H11X31441   3.346   8.581   3.547  0.8311 -0.0596 -0.0888
  228DOPC  H11Y31442   3.466   8.498   3.644 -1.6055  1.6758  1.2740
  228DOPC  C31231443   3.266   8.441   3.703 -0.3533  0.2631  0.6763
  228DOPC  H12X31444   3.177   8.424   3.638  2.4321 -1.6482 -3.0346
  228DOPC  H12Y31445   3.257   8.532   3.765 -3.3206  0.8908 -0.5076
  228DOPC  C31331446   3.299   8.315   3.780 -0.5896 -0.1953  0.1876
  228DOPC  H13X31447   3.259   8.228   3.723 -1.0505 -0.1241  0.4007
  228DOPC  H13Y31448   3.407   8.311   3.808 -0.4098 -1.9177 -0.5943
  228DOPC  C31431449   3.224   8.319   3.922 -0.5464  0.6703  0.6338
  228DOPC  H14X31450   3.252   8.404   3.987 -1.1690  0.8951  0.6142
  228DOPC  H14Y31451   3.116   8.334   3.899 -0.2835 -0.8197 -1.9097
  228DOPC  C31531452   3.252   8.190   4.001 -0.3175  0.4944  0.3817
  228DOPC  H15X31453   3.361   8.202   4.019 -0.1816  0.3076 -0.3157
  228DOPC  H15Y31454   3.232   8.097   3.944 -2.1655 -0.4351  2.4040
  228DOPC  C31631455   3.180   8.192   4.141 -0.2781  0.5717  0.5970
  228DOPC  H16X31456   3.199   8.294   4.183  1.5354  0.4958  0.0236
  228DOPC  H16Y31457   3.074   8.180   4.112  0.1998  0.4995 -1.2765
  228DOPC  C31731458   3.229   8.084   4.237 -0.3464  0.0220 -0.1492
  228DOPC  H17X31459   3.213   7.987   4.187 -0.0530  0.6043 -1.4244
  228DOPC  H17Y31460   3.339   8.105   4.239 -0.6405  1.6684  0.3552
  228DOPC  C31831461   3.164   8.095   4.373 -0.5373  0.4922 -1.0369
  228DOPC  H18X31462   3.169   7.996   4.424 -1.7413  0.3882 -1.0975
  228DOPC  H18Y31463   3.224   8.166   4.434 -0.7129 -0.3476  0.1364
  228DOPC  H18Z31464   3.058   8.123   4.362 -1.0559 -0.1196  1.7231
  229DOPC     N31465   2.067   5.930   1.535  0.0655 -0.0951  0.2129
  229DOPC   C1231466   2.036   5.826   1.649 -0.1195  0.4697  0.2240
  229DOPC  H12A31467   1.944   5.776   1.623  1.5813 -1.4726 -2.6930
  229DOPC  H12B31468   2.013   5.880   1.740 -3.2890  0.8243 -0.6758
  229DOPC   C1331469   1.942   6.018   1.522  0.3911  0.3499 -0.3287
  229DOPC  H13A31470   1.849   5.972   1.494 -0.4550  2.7777 -1.7880
  229DOPC  H13B31471   1.930   6.072   1.615 -0.6367 -3.6432  2.1272
  229DOPC  H13C31472   1.967   6.090   1.446  0.2628 -1.8443 -2.5883
  229DOPC   C1431473   2.080   5.859   1.401 -0.4029  0.0859  0.4931
  229DOPC  H14A31474   2.095   5.936   1.326  0.6448  0.3008  0.9094
  229DOPC  H14B31475   2.159   5.786   1.389  0.5758  0.9958  1.2148
  229DOPC  H14C31476   1.985   5.808   1.388 -0.1614 -0.1143 -0.5985
  229DOPC   C1531477   2.191   6.004   1.566 -0.0125  0.6715  0.7801
  229DOPC  H15A31478   2.172   6.086   1.633 -1.1447  2.0265 -1.0979
  229DOPC  H15B31479   2.226   6.047   1.473  1.3776 -1.0052  0.4703
  229DOPC  H15C31480   2.271   5.942   1.604 -1.8665 -2.7508 -0.4514
  229DOPC   C1131481   2.144   5.721   1.669 -0.2654  0.0670  0.2607
  229DOPC  H11A31482   2.106   5.638   1.732  2.0769 -0.3181  1.2804
  229DOPC  H11B31483   2.153   5.670   1.571 -1.8362 -0.4898  0.3775
  229DOPC     P31484   2.291   5.775   1.876 -0.2874 -0.4340 -0.1497
  229DOPC   O1331485   2.317   5.919   1.894  0.3981 -0.0656 -0.0101
  229DOPC   O1431486   2.403   5.681   1.910 -0.0846 -0.2537  0.2342
  229DOPC   O1231487   2.268   5.757   1.723 -0.9601  0.3974  0.4426
  229DOPC   O1131488   2.153   5.730   1.940 -0.3764 -0.2124 -0.4333
  229DOPC    C131489   2.131   5.597   1.987  0.3265 -0.5144  0.1570
  229DOPC    HA31490   2.181   5.516   1.929 -0.6558 -1.4600  0.5799
  229DOPC    HB31491   2.022   5.582   1.966  0.3235  1.6590 -1.7741
  229DOPC    C231492   2.165   5.586   2.136 -0.5056  0.7186 -0.1265
  229DOPC    HS31493   2.275   5.579   2.150 -0.2242 -2.0023 -2.6707
  229DOPC   O2131494   2.113   5.459   2.199  0.2142 -0.6373  0.1188
  229DOPC   C2131495   2.174   5.346   2.168  0.1352  0.6149  1.0636
  229DOPC   O2231496   2.269   5.331   2.091  0.5749 -0.0170  0.5374
  229DOPC   C2231497   2.103   5.229   2.245  0.2433  0.0724 -0.1187
  229DOPC   H2R31498   2.119   5.146   2.174 -0.1323 -0.1284  0.0291
  229DOPC   H2S31499   1.998   5.259   2.269  0.0226 -1.1648  0.5280
  229DOPC    C331500   2.113   5.702   2.222  0.0027  0.4628 -0.3634
  229DOPC    HX31501   2.003   5.693   2.217 -0.0150  0.9404 -1.0704
  229DOPC    HY31502   2.147   5.803   2.191  0.1533  0.2486 -0.9066
  229DOPC   O3131503   2.149   5.682   2.359  0.5932 -0.2357 -0.3707
  229DOPC   C3131504   2.076   5.756   2.444 -0.5328  0.4645 -0.0047
  229DOPC   O3231505   1.993   5.836   2.419 -0.1409  0.4042 -0.6185
  229DOPC   C3231506   2.111   5.722   2.591  0.0419 -0.4099 -0.4857
  229DOPC   H2X31507   2.221   5.708   2.606  0.4242  0.3265 -2.3385
  229DOPC   H2Y31508   2.066   5.796   2.661 -0.9854 -1.4502 -0.0181
  229DOPC   C2331509   2.168   5.189   2.385 -0.4798  0.1554 -0.3320
  229DOPC   H3R31510   2.141   5.267   2.460 -0.5189 -1.4008  1.3246
  229DOPC   H3S31511   2.279   5.200   2.385 -0.2506 -1.9104 -0.2813
  229DOPC   C2431512   2.135   5.046   2.430  0.3526  0.0670  0.2149
  229DOPC   H4R31513   2.176   4.965   2.367 -0.1496  0.0767 -0.1282
  229DOPC   H4S31514   2.027   5.022   2.421  0.8955 -2.8736  0.7040
  229DOPC   C2531515   2.185   5.028   2.572 -0.2640  1.0154  0.6453
  229DOPC   H5R31516   2.134   5.095   2.645  0.6243  1.0745  1.2199
  229DOPC   H5S31517   2.292   5.054   2.582  0.0769  0.2077 -0.6322
  229DOPC   C2631518   2.156   4.889   2.628 -0.2984 -0.2669  0.0751
  229DOPC   H6R31519   2.189   4.817   2.551 -0.8464 -2.0443  1.4317
  229DOPC   H6S31520   2.045   4.892   2.634 -0.3300 -1.8352  0.7081
  229DOPC   C2731521   2.229   4.849   2.753 -0.2712 -0.6962  0.2330
  229DOPC   H7R31522   2.337   4.870   2.744  0.1873 -3.1337 -0.9398
  229DOPC   H7S31523   2.223   4.738   2.760  1.4680 -0.7396  1.5875
  229DOPC   C2831524   2.169   4.913   2.885 -0.3900  0.3469 -0.8143
  229DOPC   H8R31525   2.061   4.887   2.896 -0.5813  0.8027 -1.5585
  229DOPC   H8S31526   2.183   5.023   2.878  0.5454  0.6141  3.1667
  229DOPC   C2931527   2.233   4.851   3.008  0.0661 -0.1208 -0.4326
  229DOPC   H9R31528   2.201   4.752   3.043 -1.1882  1.0070  1.8878
  229DOPC  C21031529   2.301   4.910   3.103 -0.6487 -0.5681 -0.0595
  229DOPC  H10R31530   2.330   4.857   3.195 -0.3278 -2.0709 -0.9868
  229DOPC  C21131531   2.327   5.061   3.113  0.5490 -0.6836  0.4286
  229DOPC  H11R31532   2.279   5.123   3.034  0.7680 -0.5256  0.4187
  229DOPC  H11S31533   2.436   5.081   3.111  0.7237 -1.5858 -1.2327
  229DOPC  C21231534   2.270   5.129   3.244 -0.7850  0.5114  0.3313
  229DOPC  H12R31535   2.159   5.133   3.246 -0.8469 -0.7507  1.0249
  229DOPC  H12S31536   2.311   5.232   3.241 -0.7567  0.4788 -2.0939
  229DOPC  C21331537   2.312   5.072   3.380 -0.8744 -0.0468 -0.8772
  229DOPC  H13R31538   2.423   5.070   3.375 -0.8836 -3.1676 -1.4165
  229DOPC  H13S31539   2.273   4.968   3.386  1.1430 -0.7886  0.7955
  229DOPC  C21431540   2.270   5.173   3.493 -0.4743 -0.2085 -0.2771
  229DOPC  H14R31541   2.159   5.173   3.506 -0.5709  1.7186 -0.7150
  229DOPC  H14S31542   2.294   5.276   3.459 -0.2446 -0.0991  0.2089
  229DOPC  C21531543   2.331   5.162   3.632 -0.2642  0.1596 -1.1145
  229DOPC  H15R31544   2.441   5.169   3.618 -0.2354 -0.7061 -1.3798
  229DOPC  H15S31545   2.310   5.055   3.651  1.8177 -0.1911 -0.5292
  229DOPC  C21631546   2.271   5.251   3.739  0.4340 -0.4972 -0.5416
  229DOPC  H16R31547   2.164   5.231   3.759  0.4134  0.5927  0.5664
  229DOPC  H16S31548   2.269   5.356   3.703  0.3333 -0.6814 -1.0823
  229DOPC  C21731549   2.353   5.238   3.865  0.1463 -0.1871 -0.3556
  229DOPC  H17R31550   2.460   5.246   3.833  0.3653  1.2382  0.6388
  229DOPC  H17S31551   2.353   5.134   3.905 -0.6654 -0.0230  0.0700
  229DOPC  C21831552   2.325   5.345   3.976 -0.9041 -0.2061  0.2400
  229DOPC  H18R31553   2.411   5.341   4.047 -0.5816 -0.5828 -0.1671
  229DOPC  H18S31554   2.221   5.330   4.012 -1.3455 -2.2223 -1.6580
  229DOPC  H18T31555   2.319   5.445   3.928  1.3308  0.1201  0.5572
  229DOPC   C3331556   2.049   5.585   2.608 -0.1708  0.7125 -0.1859
  229DOPC   H3X31557   2.064   5.516   2.522  0.3802  2.6745 -1.7532
  229DOPC   H3Y31558   1.939   5.603   2.613 -0.0634  1.6884 -0.9906
  229DOPC   C3431559   2.092   5.521   2.744  0.8564 -0.0403  0.0475
  229DOPC   H4X31560   2.113   5.607   2.811 -2.7302  0.8445  0.2466
  229DOPC   H4Y31561   2.193   5.475   2.741  0.0361 -1.9446  0.4883
  229DOPC   C3531562   1.993   5.418   2.803  0.3036 -0.9773  0.9012
  229DOPC   H5X31563   1.979   5.350   2.715  1.2620 -0.2386  0.1597
  229DOPC   H5Y31564   1.891   5.461   2.816  0.2434 -0.7690 -0.1700
  229DOPC   C3631565   2.045   5.342   2.926  0.3134  0.9500  0.4090
  229DOPC   H6X31566   1.960   5.279   2.960 -0.6172  2.0513  0.1886
  229DOPC   H6Y31567   2.128   5.276   2.894 -0.4894  0.8380 -1.5717
  229DOPC   C3731568   2.076   5.421   3.043  0.4269 -0.6582 -0.2406
  229DOPC   H7X31569   2.113   5.356   3.125  0.0592  1.7650  1.9657
  229DOPC   H7Y31570   2.159   5.493   3.025  0.6800 -1.0034 -0.4513
  229DOPC   C3831571   1.946   5.490   3.098  0.1711 -0.1205  0.3706
  229DOPC   H8X31572   1.856   5.427   3.084  0.2219 -0.0993 -0.0571
  229DOPC   H8Y31573   1.932   5.581   3.036 -0.3107 -1.5209 -1.6652
  229DOPC   C3931574   1.962   5.541   3.237 -0.1779  0.1387 -0.1508
  229DOPC   H9X31575   2.028   5.628   3.249 -1.2465  1.0141 -0.4642
  229DOPC  C31031576   1.883   5.495   3.339  0.0427  0.1764 -0.0177
  229DOPC  H10X31577   1.900   5.531   3.442 -1.8852 -1.8295  1.0924
  229DOPC  C31131578   1.778   5.390   3.347 -0.3039 -0.0943  0.4386
  229DOPC  H11X31579   1.742   5.349   3.250  0.6033 -0.2941  0.1706
  229DOPC  H11Y31580   1.688   5.428   3.399 -0.9443  0.8017 -1.2838
  229DOPC  C31231581   1.827   5.260   3.421 -0.7529 -0.4074 -0.2644
  229DOPC  H12X31582   1.918   5.222   3.370  0.6928  1.0621  1.1242
  229DOPC  H12Y31583   1.743   5.187   3.427 -2.1384  1.2113  3.8479
  229DOPC  C31331584   1.875   5.278   3.565  0.3144  0.0849 -0.1637
  229DOPC  H13X31585   1.940   5.194   3.597  0.4857 -0.5414 -2.0044
  229DOPC  H13Y31586   1.935   5.370   3.583 -0.1016  0.0660  1.3983
  229DOPC  C31431587   1.754   5.270   3.661 -0.9151  0.4918 -0.2400
  229DOPC  H14X31588   1.682   5.353   3.643 -0.2293  0.6546 -2.4526
  229DOPC  H14Y31589   1.707   5.170   3.648  1.3389 -0.4420 -1.6982
  229DOPC  C31531590   1.808   5.288   3.808  0.1050  0.3993  0.8347
  229DOPC  H15X31591   1.723   5.312   3.875 -0.3040 -1.3802  1.0076
  229DOPC  H15Y31592   1.889   5.363   3.800 -0.5363  0.9999 -0.3465
  229DOPC  C31631593   1.872   5.156   3.862  0.3127 -0.1427 -0.1904
  229DOPC  H16X31594   1.794   5.078   3.854 -0.6979  0.5036  2.2845
  229DOPC  H16Y31595   1.959   5.120   3.803  0.5706  0.1487  0.0099
  229DOPC  C31731596   1.916   5.169   4.007 -0.3359 -0.2424  0.2114
  229DOPC  H17X31597   2.012   5.225   4.017  0.2313 -0.6747 -2.3058
  229DOPC  H17Y31598   1.839   5.234   4.054 -0.0811  0.9329 -0.9293
  229DOPC  C31831599   1.928   5.035   4.081  1.0376  0.0473  0.2444
  229DOPC  H18X31600   2.016   4.981   4.042  0.0290 -0.2733 -1.7310
  229DOPC  H18Y31601   1.930   5.043   4.192  0.5631  3.0636  0.1212
  229DOPC  H18Z31602   1.835   4.982   4.052 -0.3726  1.2131  2.3440
  230DOPC     N31603   3.865   0.595   1.782 -0.2237  0.7917 -0.4187
  230DOPC   C1231604   3.945   0.461   1.771  0.4741 -0.0642  0.3217
  230DOPC  H12A31605   3.999   0.460   1.678 -2.2473 -0.4704 -1.3535
  230DOPC  H12B31606   3.876   0.379   1.761 -0.1843  0.5294 -0.0749
  230DOPC   C1331607   3.778   0.611   1.909  0.6227  0.4327 -0.1112
  230DOPC  H13A31608   3.834   0.619   2.001  1.8114 -1.4278 -0.6179
  230DOPC  H13B31609   3.710   0.694   1.893 -0.2834  0.4860  3.3597
  230DOPC  H13C31610   3.721   0.521   1.922  0.6351  0.6716  1.9629
  230DOPC   C1431611   3.772   0.592   1.668  0.0005 -0.1324 -0.4324
  230DOPC  H14A31612   3.820   0.631   1.580 -2.5301 -1.1025 -2.3752
  230DOPC  H14B31613   3.730   0.495   1.645  2.0544 -0.9380 -0.9336
  230DOPC  H14C31614   3.682   0.646   1.694 -0.4759 -1.4998  0.8979
  230DOPC   C1531615   3.961   0.707   1.769  0.0347  0.1532  0.8271
  230DOPC  H15A31616   4.033   0.689   1.691  1.2477 -0.4797  2.0718
  230DOPC  H15B31617   4.027   0.717   1.853 -0.0247  0.4358  0.8420
  230DOPC  H15C31618   3.906   0.799   1.753  1.1722  0.6576 -0.3394
  230DOPC   C1131619   4.045   0.415   1.884 -0.4341  0.1338 -0.8725
  230DOPC  H11A31620   3.996   0.419   1.983  1.3962  1.5725  0.0306
  230DOPC  H11B31621   4.071   0.308   1.870  0.3319  0.6116 -4.0757
  230DOPC     P31622   4.219   0.597   1.996  0.1595  0.1483  0.1509
  230DOPC   O1331623   4.106   0.651   2.075  0.1798 -0.0637  0.7823
  230DOPC   O1431624   4.307   0.700   1.936 -0.3810 -0.1570  0.8851
  230DOPC   O1231625   4.169   0.490   1.886 -0.2456  0.0685  0.6349
  230DOPC   O1131626   4.305   0.524   2.098 -0.0668  0.6549  0.3334
  230DOPC    C131627   4.313   0.385   2.111 -0.3843 -0.1406  0.3005
  230DOPC    HA31628   4.415   0.351   2.138 -0.6715 -1.6921 -0.4615
  230DOPC    HB31629   4.276   0.338   2.017 -2.0327  0.7128  0.4827
  230DOPC    C231630   4.211   0.337   2.218 -0.3659  0.0180 -0.5803
  230DOPC    HS31631   4.105   0.360   2.195 -0.5805 -1.0517 -0.6934
  230DOPC   O2131632   4.244   0.398   2.343 -0.1289  0.0428 -0.1741
  230DOPC   C2131633   4.150   0.445   2.419 -0.0971  0.1386  0.2478
  230DOPC   O2231634   4.028   0.438   2.400  0.2389  0.4938 -0.1503
  230DOPC   C2231635   4.207   0.502   2.547  0.5979  0.0108 -0.6615
  230DOPC   H2R31636   4.234   0.607   2.526 -4.5725  1.6910 -0.2327
  230DOPC   H2S31637   4.299   0.443   2.570 -0.2038 -1.0507 -0.0683
  230DOPC    C331638   4.211   0.180   2.229  0.2725 -0.1137  0.2117
  230DOPC    HX31639   4.318   0.152   2.241  0.7604  1.0457 -1.2291
  230DOPC    HY31640   4.185   0.127   2.135 -4.4010  1.3605  0.4019
  230DOPC   O3131641   4.139   0.131   2.348 -0.2671 -0.0204  0.5853
  230DOPC   C3131642   4.006   0.116   2.322 -0.0728 -0.1146 -0.4296
  230DOPC   O3231643   3.951   0.149   2.222  0.5124  0.0649  0.2356
  230DOPC   C3231644   3.940   0.066   2.455  0.0604 -0.5481 -0.2270
  230DOPC   H2X31645   3.861   0.006   2.406 -0.1932 -0.4940  0.1183
  230DOPC   H2Y31646   4.007   0.002   2.516 -0.2192 -2.7228 -2.0711
  230DOPC   C2331647   4.113   0.501   2.671  0.0494 -0.6296  0.5274
  230DOPC   H3R31648   4.011   0.468   2.644  0.4958 -2.9863  1.4898
  230DOPC   H3S31649   4.120   0.602   2.718  1.8857 -0.4800  0.0106
  230DOPC   C2431650   4.152   0.397   2.779  0.5575 -0.0027  0.4442
  230DOPC   H4R31651   4.256   0.425   2.809  0.9583 -1.1244  0.1375
  230DOPC   H4S31652   4.168   0.295   2.739  1.2196  0.3335 -0.1738
  230DOPC   C2531653   4.052   0.399   2.891 -0.2570 -0.7323  0.2432
  230DOPC   H5R31654   3.967   0.328   2.880  1.1846 -2.4366 -0.1920
  230DOPC   H5S31655   4.023   0.506   2.905  1.7150 -0.0882 -0.2922
  230DOPC   C2631656   4.124   0.361   3.023 -0.2530 -0.6204  0.1894
  230DOPC   H6R31657   4.207   0.426   3.058 -0.9418  0.0432  0.6062
  230DOPC   H6S31658   4.172   0.261   3.013  1.4427  0.0078  1.5204
  230DOPC   C2731659   4.025   0.355   3.140 -0.5458  0.4586  0.1234
  230DOPC   H7R31660   4.082   0.298   3.217  0.1053 -0.2601 -0.8601
  230DOPC   H7S31661   3.939   0.289   3.117  0.0084  0.5326 -2.3743
  230DOPC   C2831662   4.005   0.496   3.208 -0.5164  0.4499  0.1353
  230DOPC   H8R31663   3.926   0.497   3.285 -1.1834 -0.0416 -0.5268
  230DOPC   H8S31664   3.959   0.558   3.128  0.1782  0.6221 -0.1408
  230DOPC   C2931665   4.131   0.553   3.274  0.0582  0.0965  0.6331
  230DOPC   H9R31666   4.173   0.506   3.364  1.5536 -0.2840 -0.2294
  230DOPC  C21031667   4.208   0.645   3.217  0.3087 -0.0882 -0.6908
  230DOPC  H10R31668   4.306   0.661   3.264  0.3360 -0.8969 -0.4549
  230DOPC  C21131669   4.192   0.723   3.093  0.3239  0.1185  0.1676
  230DOPC  H11R31670   4.195   0.825   3.136 -0.8343  0.5371 -0.6902
  230DOPC  H11S31671   4.092   0.713   3.046  0.3942  0.2978 -0.0187
  230DOPC  C21231672   4.301   0.698   2.996  0.0642 -0.4254  0.2667
  230DOPC  H12R31673   4.276   0.600   2.951 -2.4252  0.9119 -1.4615
  230DOPC  H12S31674   4.400   0.695   3.047  0.3558 -1.0846 -0.3240
  230DOPC  C21331675   4.302   0.794   2.883  0.4645 -0.3006  0.5815
  230DOPC  H13R31676   4.290   0.897   2.923 -0.9447 -0.8950  1.7550
  230DOPC  H13S31677   4.215   0.782   2.815 -0.3766 -0.9356  1.7370
  230DOPC  C21431678   4.433   0.777   2.792 -0.0705 -0.0052 -0.4368
  230DOPC  H14R31679   4.423   0.681   2.737 -0.8642 -0.8575  1.1336
  230DOPC  H14S31680   4.520   0.781   2.861 -1.1777  1.0366  0.9802
  230DOPC  C21531681   4.450   0.890   2.684 -0.3552 -0.4024  0.2375
  230DOPC  H15R31682   4.552   0.877   2.643 -0.2603 -0.6980  0.5660
  230DOPC  H15S31683   4.436   0.984   2.741  1.7549 -1.6800  3.1116
  230DOPC  C21631684   4.355   0.886   2.567  0.0336  0.0508 -0.1841
  230DOPC  H16R31685   4.258   0.847   2.606  1.4386  0.1142  3.8381
  230DOPC  H16S31686   4.390   0.807   2.497 -1.8660  0.0120 -1.1530
  230DOPC  C21731687   4.322   1.025   2.509 -0.5049 -0.6402  0.3556
  230DOPC  H17R31688   4.318   1.096   2.595 -0.5274  2.6336 -2.1782
  230DOPC  H17S31689   4.218   1.015   2.471 -0.5864  0.7165  0.2051
  230DOPC  C21831690   4.417   1.069   2.399 -0.4674 -0.5636  0.2406
  230DOPC  H18R31691   4.414   1.002   2.310  0.6716  0.0404 -0.2757
  230DOPC  H18S31692   4.521   1.069   2.438 -0.0655  0.9453 -0.7304
  230DOPC  H18T31693   4.387   1.170   2.363 -1.8769 -1.4306 -1.1629
  230DOPC   C3331694   3.889   0.188   2.543  0.0846  0.5442  0.4216
  230DOPC   H3X31695   3.846   0.268   2.479  2.8862  2.4776  0.8095
  230DOPC   H3Y31696   3.969   0.236   2.603  1.0766  1.6897 -1.7021
  230DOPC   C3431697   3.773   0.152   2.648 -0.3601  0.1858  0.5439
  230DOPC   H4X31698   3.822   0.089   2.725 -1.7531  1.3574  2.4763
  230DOPC   H4Y31699   3.690   0.090   2.608 -0.0130 -1.1945  1.8585
  230DOPC   C3531700   3.708   0.269   2.724 -0.0005  0.5845  0.0457
  230DOPC   H5X31701   3.650   0.330   2.652 -1.0495 -1.0167 -0.5146
  230DOPC   H5Y31702   3.802   0.314   2.763  2.3647 -3.8406  0.1084
  230DOPC   C3631703   3.609   0.231   2.837 -0.3044  0.0313  0.5107
  230DOPC   H6X31704   3.647   0.136   2.882 -1.4037 -1.7386 -2.0268
  230DOPC   H6Y31705   3.605   0.320   2.903 -1.5146  1.5844 -1.5509
  230DOPC   C3731706   3.464   0.213   2.789 -0.6653  0.1795 -0.3553
  230DOPC   H7X31707   3.415   0.305   2.751 -0.5856 -0.6316 -2.5338
  230DOPC   H7Y31708   3.475   0.153   2.697 -0.0079  1.6966 -1.3101
  230DOPC   C3831709   3.370   0.160   2.899  0.1419 -0.5640 -0.0277
  230DOPC   H8X31710   3.401   0.060   2.935  0.9870 -0.1363  0.4437
  230DOPC   H8Y31711   3.280   0.139   2.836  0.9216  0.2931 -1.4908
  230DOPC   C3931712   3.336   0.263   3.006  0.0205  0.0583 -0.6127
  230DOPC   H9X31713   3.337   0.368   2.973 -0.2056  0.3260  0.2092
  230DOPC  C31031714   3.303   0.238   3.138  0.2715  0.0346  0.0431
  230DOPC  H10X31715   3.256   0.314   3.202  0.9231  0.5810 -0.1214
  230DOPC  C31131716   3.309   0.102   3.198 -0.3101  0.2376  0.5789
  230DOPC  H11X31717   3.349   0.111   3.302  0.6119 -1.1023  0.3657
  230DOPC  H11Y31718   3.376   0.038   3.137 -1.6822  1.3303 -2.2787
  230DOPC  C31231719   3.176   0.047   3.205  0.7110  0.0609 -0.1209
  230DOPC  H12X31720   3.127   0.028   3.107  2.1783 -1.2616 -0.6346
  230DOPC  H12Y31721   3.104   0.116   3.254 -2.1388 -0.7950 -2.7363
  230DOPC  C31331722   3.170  -0.087   3.276  0.7513  0.1310  0.2923
  230DOPC  H13X31723   3.062  -0.113   3.286  0.7615  0.6013  1.8551
  230DOPC  H13Y31724   3.215  -0.159   3.204 -0.8458  0.4559 -1.1041
  230DOPC  C31431725   3.224  -0.096   3.423  0.5919  0.1089  0.0799
  230DOPC  H14X31726   3.233  -0.205   3.444  2.6796 -0.1107 -1.5914
  230DOPC  H14Y31727   3.322  -0.045   3.429  0.8768 -0.4188  0.0053
  230DOPC  C31531728   3.139  -0.026   3.520  0.1628 -0.2829  0.3573
  230DOPC  H15X31729   3.037  -0.070   3.510 -1.0856  2.8701 -2.9786
  230DOPC  H15Y31730   3.119   0.075   3.478 -1.9085 -1.2965 -1.2747
  230DOPC  C31631731   3.202  -0.022   3.653 -0.5494 -0.3263  0.9806
  230DOPC  H16X31732   3.282   0.055   3.648 -2.1620  1.3344 -1.1974
  230DOPC  H16Y31733   3.122   0.005   3.725 -0.4239 -0.6377  1.2445
  230DOPC  C31731734   3.257  -0.157   3.713 -0.0011 -0.5863 -0.1432
  230DOPC  H17X31735   3.192  -0.247   3.705  2.1360 -2.1411 -0.7641
  230DOPC  H17Y31736   3.358  -0.177   3.672  0.2457 -0.8006  0.5571
  230DOPC  C31831737   3.282  -0.140   3.865  1.0209  0.4463 -0.3262
  230DOPC  H18X31738   3.324  -0.229   3.915  0.3939  0.9745  1.2033
  230DOPC  H18Y31739   3.350  -0.054   3.884  0.9365  0.1268  1.6051
  230DOPC  H18Z31740   3.183  -0.121   3.913 -0.2999 -0.1088 -2.6443
  231DOPC     N31741   1.482   5.065   1.596 -0.1034 -0.0172 -0.7381
  231DOPC   C1231742   1.417   4.956   1.685  0.1771 -0.2386 -0.4354
  231DOPC  H12A31743   1.492   4.920   1.754  0.7405  0.1377 -0.8313
  231DOPC  H12B31744   1.398   4.867   1.628  0.9870 -1.6242  1.3478
  231DOPC   C1331745   1.513   5.175   1.685 -0.0443  0.3886  0.8089
  231DOPC  H13A31746   1.591   5.241   1.652 -0.1685  0.6530  1.0401
  231DOPC  H13B31747   1.427   5.236   1.707  0.6160  2.2250 -1.4002
  231DOPC  H13C31748   1.554   5.136   1.778 -1.0904 -0.7570  0.8250
  231DOPC   C1431749   1.388   5.109   1.494 -0.2213  0.0920 -0.3458
  231DOPC  H14A31750   1.410   5.209   1.460 -0.6807 -0.1744 -1.4814
  231DOPC  H14B31751   1.394   5.035   1.415  0.4736  0.2172 -0.4174
  231DOPC  H14C31752   1.289   5.113   1.536  0.1051 -1.6715  0.6716
  231DOPC   C1531753   1.607   5.018   1.537 -0.0513  0.1941 -0.1678
  231DOPC  H15A31754   1.664   4.961   1.609 -1.1058  0.2825  0.7623
  231DOPC  H15B31755   1.673   5.093   1.497  2.9163 -0.1157  3.5900
  231DOPC  H15C31756   1.602   4.937   1.465  5.4363  1.5205 -2.5132
  231DOPC   C1131757   1.292   5.001   1.769  0.4332 -0.0944  0.3099
  231DOPC  H11A31758   1.238   4.911   1.803 -1.9879  1.2082  0.1724
  231DOPC  H11B31759   1.333   5.071   1.845 -0.3237 -1.0619  1.6498
  231DOPC     P31760   1.081   5.151   1.746 -0.0318  0.0463  0.3707
  231DOPC   O1331761   1.006   5.070   1.848 -0.1501 -0.9235 -0.2195
  231DOPC   O1431762   1.001   5.202   1.632  0.1969 -0.7362 -0.8124
  231DOPC   O1231763   1.193   5.061   1.684 -0.3756  0.2868 -0.1252
  231DOPC   O1131764   1.171   5.268   1.812 -0.1348  0.2570 -0.2060
  231DOPC    C131765   1.126   5.397   1.845 -0.6431  0.0036 -0.2316
  231DOPC    HA31766   1.017   5.404   1.824 -0.9601 -1.1753  0.8558
  231DOPC    HB31767   1.195   5.464   1.790  0.4882  0.3367  1.5327
  231DOPC    C231768   1.156   5.413   1.991 -0.2027  0.7850  0.2822
  231DOPC    HS31769   1.266   5.417   2.002 -0.0183 -0.5530 -0.8990
  231DOPC   O2131770   1.096   5.308   2.067  0.0029  0.1464  0.1741
  231DOPC   C2131771   1.179   5.210   2.110  0.3216  0.6008 -0.0715
  231DOPC   O2231772   1.299   5.207   2.085  0.0107 -0.5036 -0.3624
  231DOPC   C2231773   1.099   5.104   2.182 -0.2161  0.3217 -0.0801
  231DOPC   H2R31774   1.167   5.021   2.211  0.6892  1.3722  0.8948
  231DOPC   H2S31775   1.014   5.075   2.117 -1.6709  2.0195  0.9764
  231DOPC    C331776   1.126   5.555   2.061  0.3833 -0.3402 -0.2226
  231DOPC    HX31777   1.017   5.561   2.084  0.2559 -2.3815 -0.1072
  231DOPC    HY31778   1.142   5.643   1.996  1.5475  1.3044  2.1728
  231DOPC   O3131779   1.202   5.566   2.184 -0.7336  0.0927  0.4286
  231DOPC   C3131780   1.214   5.686   2.234 -0.4448 -0.8137  0.0784
  231DOPC   O3231781   1.177   5.789   2.176  0.1829  0.6898 -0.2885
  231DOPC   C3231782   1.278   5.679   2.373 -0.6174 -0.1468 -0.1013
  231DOPC   H2X31783   1.220   5.628   2.453 -0.8651 -1.2765 -0.9862
  231DOPC   H2Y31784   1.370   5.617   2.370  0.9820  2.1209 -0.3528
  231DOPC   C2331785   1.038   5.162   2.309 -0.6621  0.3194 -0.2867
  231DOPC   H3R31786   0.973   5.086   2.359  1.5478 -0.8849  0.9273
  231DOPC   H3S31787   0.978   5.247   2.270 -0.7530 -0.9186 -3.0581
  231DOPC   C2431788   1.152   5.212   2.403  0.4470 -0.1066  0.3842
  231DOPC   H4R31789   1.196   5.309   2.372  1.7063 -0.3156  1.4239
  231DOPC   H4S31790   1.236   5.138   2.406  0.2397 -0.5047 -1.9746
  231DOPC   C2531791   1.100   5.231   2.549  0.2924 -0.0371  0.0284
  231DOPC   H5R31792   1.027   5.151   2.573  0.4373 -0.4338 -0.8241
  231DOPC   H5S31793   1.036   5.321   2.555  1.2016  0.5176  2.6394
  231DOPC   C2631794   1.205   5.239   2.654 -0.4347 -0.0547 -1.2684
  231DOPC   H6R31795   1.276   5.154   2.645  0.0558  0.4572 -2.3896
  231DOPC   H6S31796   1.153   5.219   2.751  0.3226 -0.6805 -0.9768
  231DOPC   C2731797   1.286   5.369   2.659 -0.0362  0.1595  0.4734
  231DOPC   H7R31798   1.223   5.458   2.639  0.8419  0.3092 -1.9783
  231DOPC   H7S31799   1.346   5.352   2.567 -1.7217 -0.7528 -0.4981
  231DOPC   C2831800   1.368   5.385   2.791 -0.0878  0.1463  0.0834
  231DOPC   H8R31801   1.403   5.284   2.821  2.6148  0.6935 -1.0105
  231DOPC   H8S31802   1.308   5.423   2.877 -2.3756 -0.9244 -0.9350
  231DOPC   C2931803   1.475   5.489   2.759  0.2838  0.1387 -0.1126
  231DOPC   H9R31804   1.535   5.470   2.669  1.6279 -0.5678  0.9031
  231DOPC  C21031805   1.509   5.592   2.842 -0.3193 -0.0310  0.3647
  231DOPC  H10R31806   1.596   5.649   2.806  0.3477 -2.6916 -2.8042
  231DOPC  C21131807   1.458   5.616   2.986  0.0522  0.2990 -0.0081
  231DOPC  H11R31808   1.475   5.523   3.044 -0.4435  0.0974 -0.1830
  231DOPC  H11S31809   1.358   5.662   2.993 -0.3985 -0.8498  1.7177
  231DOPC  C21231810   1.542   5.726   3.057  0.4095 -0.0070  0.6355
  231DOPC  H12R31811   1.520   5.827   3.017 -3.0667  0.0469  2.3334
  231DOPC  H12S31812   1.648   5.693   3.046  0.0455 -0.7921 -0.8413
  231DOPC  C21331813   1.516   5.736   3.208 -0.6094  0.7041 -0.4330
  231DOPC  H13R31814   1.503   5.636   3.253 -1.5244  0.4862 -1.1496
  231DOPC  H13S31815   1.415   5.781   3.218 -0.8146  0.4583 -1.3394
  231DOPC  C21431816   1.626   5.819   3.281  0.0162  0.8819  0.1265
  231DOPC  H14R31817   1.636   5.916   3.228  0.2620  1.0555  0.4848
  231DOPC  H14S31818   1.719   5.759   3.272 -0.5707 -0.3724  1.9385
  231DOPC  C21531819   1.594   5.850   3.426 -0.0207  0.3700 -0.3607
  231DOPC  H15R31820   1.497   5.903   3.429 -0.1501  0.1112  0.9147
  231DOPC  H15S31821   1.675   5.914   3.467  1.4497 -1.0933 -0.8526
  231DOPC  C21631822   1.600   5.728   3.521 -0.1547 -0.5601 -0.2173
  231DOPC  H16R31823   1.695   5.683   3.487 -0.3791 -0.2465 -1.2987
  231DOPC  H16S31824   1.519   5.657   3.496  0.6407 -1.6962  0.3558
  231DOPC  C21731825   1.615   5.762   3.668  0.1788  0.6255 -0.3760
  231DOPC  H17R31826   1.512   5.766   3.710  0.1923 -0.7583 -0.1833
  231DOPC  H17S31827   1.646   5.869   3.680 -2.6297  1.6854 -1.6700
  231DOPC  C21831828   1.703   5.660   3.742 -0.4355 -0.2441  0.6306
  231DOPC  H18R31829   1.807   5.663   3.702 -0.7553  1.4900 -0.1686
  231DOPC  H18S31830   1.670   5.555   3.728  0.4361 -0.3703 -0.7333
  231DOPC  H18T31831   1.710   5.684   3.850  0.0349  1.2622  0.2847
  231DOPC   C3331832   1.329   5.816   2.419 -0.0585  1.0328 -0.2478
  231DOPC   H3X31833   1.244   5.881   2.449 -1.5367 -0.7791 -0.3049
  231DOPC   H3Y31834   1.375   5.857   2.326 -1.0251  0.6283 -0.9163
  231DOPC   C3431835   1.446   5.801   2.517  0.5812 -0.7494  0.2216
  231DOPC   H4X31836   1.528   5.758   2.455 -0.4759  0.2157 -1.9635
  231DOPC   H4Y31837   1.411   5.746   2.606  0.5899 -0.4710  0.3973
  231DOPC   C3531838   1.506   5.944   2.560 -0.3018  0.4684 -0.0596
  231DOPC   H5X31839   1.451   5.983   2.648  0.6056  0.4942  0.5147
  231DOPC   H5Y31840   1.515   6.016   2.476  0.5850  1.4604  0.8568
  231DOPC   C3631841   1.648   5.916   2.611 -0.0801  0.0004 -0.0689
  231DOPC   H6X31842   1.646   5.835   2.687 -0.4045 -0.0956 -0.1797
  231DOPC   H6Y31843   1.715   5.866   2.538 -0.4601 -0.0762 -0.3671
  231DOPC   C3731844   1.718   6.036   2.673 -0.3851  0.3325 -0.3488
  231DOPC   H7X31845   1.754   6.095   2.585 -0.2302  1.3147  0.3523
  231DOPC   H7Y31846   1.652   6.091   2.743  1.1701  0.7435  0.8489
  231DOPC   C3831847   1.852   6.004   2.760 -0.2227 -0.0171  0.3960
  231DOPC   H8X31848   1.910   6.096   2.780  1.4296 -0.7535 -0.7875
  231DOPC   H8Y31849   1.914   5.944   2.689 -1.0771  0.1647 -0.5214
  231DOPC   C3931850   1.839   5.920   2.884 -0.4596 -0.0257 -0.8035
  231DOPC   H9X31851   1.846   5.811   2.875 -1.1528 -0.3078  1.3651
  231DOPC  C31031852   1.871   5.966   3.012 -0.0144 -0.2379  0.0723
  231DOPC  H10X31853   1.846   5.896   3.093  1.9052  0.6233  1.4779
  231DOPC  C31131854   1.893   6.110   3.049  0.1229 -0.6745 -0.5778
  231DOPC  H11X31855   1.887   6.184   2.967  1.1815 -0.9541 -0.9253
  231DOPC  H11Y31856   1.999   6.111   3.083  0.2614  1.4458 -0.9243
  231DOPC  C31231857   1.810   6.159   3.174  0.2171 -0.5423  0.1943
  231DOPC  H12X31858   1.869   6.243   3.216  0.8307 -0.8058 -0.1152
  231DOPC  H12Y31859   1.821   6.073   3.244 -0.0604  0.1853  1.1396
  231DOPC  C31331860   1.673   6.213   3.144  0.5248  0.1174 -0.6601
  231DOPC  H13X31861   1.613   6.130   3.100 -0.8816  0.3035  0.7901
  231DOPC  H13Y31862   1.629   6.231   3.245  0.7778 -0.6907 -0.4002
  231DOPC  C31431863   1.652   6.331   3.062 -0.0202 -0.7815  0.6679
  231DOPC  H14X31864   1.668   6.418   3.129  1.3345  1.2794 -2.1096
  231DOPC  H14Y31865   1.718   6.330   2.972  0.5737 -2.4565  1.0978
  231DOPC  C31531866   1.514   6.350   2.998  0.5098 -0.0033 -0.0453
  231DOPC  H15X31867   1.446   6.364   3.085  1.5262 -0.1124  0.7827
  231DOPC  H15Y31868   1.483   6.261   2.938  0.7098  0.0311 -0.1990
  231DOPC  C31631869   1.498   6.484   2.918 -0.4796 -0.7183  0.3118
  231DOPC  H16X31870   1.390   6.505   2.900 -0.4662 -0.0050  1.0111
  231DOPC  H16Y31871   1.536   6.575   2.969 -0.3619  0.6583 -2.0682
  231DOPC  C31731872   1.561   6.482   2.783 -0.4879 -0.3957 -0.6374
  231DOPC  H17X31873   1.671   6.473   2.799 -0.4226 -0.2489 -0.9898
  231DOPC  H17Y31874   1.531   6.398   2.716  2.4824 -1.8172 -0.3710
  231DOPC  C31831875   1.515   6.609   2.708  0.4272  0.0023 -0.0889
  231DOPC  H18X31876   1.578   6.620   2.617 -1.2686 -1.4480 -1.5191
  231DOPC  H18Y31877   1.408   6.602   2.680 -0.3197  1.6098  2.0959
  231DOPC  H18Z31878   1.528   6.695   2.778 -0.8650  1.2297 -1.2876
  232DOPC     N31879   0.122   1.293   1.722 -0.2571 -0.1752  0.2095
  232DOPC   C1231880   0.045   1.247   1.842  0.1426  0.5714 -0.1492
  232DOPC  H12A31881  -0.030   1.176   1.811 -1.0586  1.7466  0.0013
  232DOPC  H12B31882  -0.019   1.323   1.884 -0.7833 -0.5615  0.5572
  232DOPC   C1331883   0.043   1.364   1.622 -0.0271  0.1939  0.0014
  232DOPC  H13A31884   0.095   1.406   1.537 -1.7320  0.3875 -0.9917
  232DOPC  H13B31885  -0.028   1.293   1.583  0.0608  0.2716 -0.3058
  232DOPC  H13C31886  -0.019   1.445   1.656 -2.3205 -0.8769 -1.3945
  232DOPC   C1431887   0.192   1.181   1.653  0.4082 -0.0666 -0.0724
  232DOPC  H14A31888   0.124   1.110   1.607 -1.4638 -0.1742  2.5944
  232DOPC  H14B31889   0.269   1.212   1.584 -0.2201  1.1716 -0.2312
  232DOPC  H14C31890   0.242   1.123   1.730 -1.6572 -1.4006  0.3486
  232DOPC   C1531891   0.232   1.388   1.762 -0.1401 -0.0262 -0.1523
  232DOPC  H15A31892   0.189   1.476   1.808  1.8784  1.3530 -0.7861
  232DOPC  H15B31893   0.286   1.422   1.675 -0.5083  1.6993  0.2608
  232DOPC  H15C31894   0.294   1.347   1.840  0.9686  0.3587 -0.8090
  232DOPC   C1131895   0.122   1.176   1.959  0.5815 -0.2639  0.3662
  232DOPC  H11A31896   0.176   1.252   2.019  1.9625 -0.9328  0.0165
  232DOPC  H11B31897   0.037   1.139   2.019  0.0311  2.4681  1.4097
  232DOPC     P31898   0.359   1.064   1.958  0.3311  0.1493 -0.1400
  232DOPC   O1331899   0.428   1.173   1.890 -0.2644  0.0653 -0.0098
  232DOPC   O1431900   0.424   0.934   1.930 -0.4985  0.1793 -0.4856
  232DOPC   O1231901   0.206   1.067   1.916 -0.3039  0.1938  0.3322
  232DOPC   O1131902   0.371   1.089   2.114  0.3805 -0.5684  0.1995
  232DOPC    C131903   0.273   1.029   2.204 -0.2378 -0.6781 -0.1732
  232DOPC    HA31904   0.271   0.918   2.192 -0.8562 -0.6594 -0.2896
  232DOPC    HB31905   0.171   1.073   2.192 -0.3378 -0.7253  0.4693
  232DOPC    C231906   0.310   1.061   2.353 -0.9522  0.0219  0.1466
  232DOPC    HS31907   0.233   1.034   2.429 -1.1368  0.5996  0.1715
  232DOPC   O2131908   0.352   1.206   2.378 -0.3116  0.0948 -0.5907
  232DOPC   C2131909   0.257   1.292   2.344  0.0274  0.0922  0.7143
  232DOPC   O2231910   0.145   1.270   2.308 -0.2465 -0.0578  0.1259
  232DOPC   C2231911   0.321   1.431   2.349 -0.4517  0.2369  0.1519
  232DOPC   H2R31912   0.267   1.494   2.275 -0.2728  0.7860  0.4800
  232DOPC   H2S31913   0.426   1.421   2.314 -0.1156  0.7404  0.9726
  232DOPC    C331914   0.422   0.964   2.408 -0.3310 -0.6674 -0.3189
  232DOPC    HX31915   0.522   0.979   2.361 -0.2448  1.9615  0.5040
  232DOPC    HY31916   0.391   0.859   2.390 -1.8989 -0.3246  0.2097
  232DOPC   O3131917   0.429   0.980   2.550 -0.0968 -0.1563  0.4809
  232DOPC   C3131918   0.544   0.947   2.614  0.0604  0.8428 -0.7352
  232DOPC   O3231919   0.645   0.890   2.565 -0.2823  0.0011 -0.2206
  232DOPC   C3231920   0.514   0.966   2.758 -1.3967  0.8716  0.4448
  232DOPC   H2X31921   0.415   1.013   2.775 -1.4096  1.5618 -1.3713
  232DOPC   H2Y31922   0.518   0.867   2.809  2.4295  1.0323  0.7481
  232DOPC   C2331923   0.346   1.497   2.482 -0.1249  0.0384  0.4044
  232DOPC   H3R31924   0.431   1.567   2.465 -1.9609  1.5585 -3.6809
  232DOPC   H3S31925   0.371   1.434   2.570  2.1685  2.8416  1.9519
  232DOPC   C2431926   0.218   1.572   2.522 -0.6080 -0.0634  0.3655
  232DOPC   H4R31927   0.127   1.507   2.516  0.5854 -1.7190 -0.6636
  232DOPC   H4S31928   0.214   1.659   2.454  0.6469  1.4386  2.1117
  232DOPC   C2531929   0.238   1.634   2.659 -0.1809  0.4964  0.1803
  232DOPC   H5R31930   0.339   1.681   2.659  0.0596  0.0232 -1.2927
  232DOPC   H5S31931   0.257   1.559   2.739  2.4267  0.5096 -0.3195
  232DOPC   C2631932   0.130   1.734   2.700  0.8884  0.9973  0.7161
  232DOPC   H6R31933   0.161   1.836   2.666  1.3605  0.9309  0.9358
  232DOPC   H6S31934   0.119   1.734   2.810  5.1055 -0.3472  1.3368
  232DOPC   C2731935  -0.014   1.717   2.637 -0.2987  0.3975 -0.1532
  232DOPC   H7R31936  -0.045   1.617   2.674 -0.1560  0.5561  0.4058
  232DOPC   H7S31937  -0.018   1.722   2.526 -1.4383 -2.1681 -0.2973
  232DOPC   C2831938  -0.101   1.836   2.679 -0.1512 -0.6926 -0.2964
  232DOPC   H8R31939  -0.047   1.925   2.641 -0.9376 -0.8914 -1.9836
  232DOPC   H8S31940  -0.093   1.841   2.790 -2.2720 -1.9042 -0.0105
  232DOPC   C2931941  -0.241   1.828   2.623  0.0712  0.4234  0.3069
  232DOPC   H9R31942  -0.250   1.749   2.546 -0.6390 -0.0939  0.9073
  232DOPC  C21031943  -0.346   1.900   2.658  0.0436 -0.0475 -0.7663
  232DOPC  H10R31944  -0.447   1.875   2.622 -0.5355 -1.8584  1.8893
  232DOPC  C21131945  -0.350   1.998   2.775  0.3686  0.0228 -0.1842
  232DOPC  H11R31946  -0.387   2.096   2.737  0.8420  0.3661  0.2198
  232DOPC  H11S31947  -0.244   2.002   2.808  0.2857 -0.7062  0.1808
  232DOPC  C21231948  -0.430   1.954   2.898  0.4861  0.1859  0.2729
  232DOPC  H12R31949  -0.439   1.844   2.913 -1.7232  0.1181 -1.0872
  232DOPC  H12S31950  -0.534   1.989   2.880  1.4700  2.5846 -1.2306
  232DOPC  C21331951  -0.373   2.020   3.023 -0.1650  0.7644  0.3560
  232DOPC  H13R31952  -0.336   2.123   3.003  0.0802  0.3586 -1.3719
  232DOPC  H13S31953  -0.296   1.961   3.077 -3.1347 -2.6768  1.2823
  232DOPC  C21431954  -0.480   2.052   3.132  0.2625  0.2340 -0.0733
  232DOPC  H14R31955  -0.548   1.968   3.154  2.4664 -0.8382  3.5955
  232DOPC  H14S31956  -0.554   2.128   3.099 -1.4985 -1.1597  0.5016
  232DOPC  C21531957  -0.416   2.098   3.261  0.9975  0.2713 -0.8311
  232DOPC  H15R31958  -0.363   2.195   3.246  2.5358 -0.1686  1.3144
  232DOPC  H15S31959  -0.344   2.016   3.280  1.0778  0.5922  0.3023
  232DOPC  C21631960  -0.514   2.095   3.388 -0.1191 -0.3758  0.7333
  232DOPC  H16R31961  -0.577   2.187   3.389 -1.6604 -1.2895 -2.1604
  232DOPC  H16S31962  -0.453   2.089   3.481  1.1840 -2.3395 -0.2045
  232DOPC  C21731963  -0.604   1.977   3.405  0.3034 -0.7606 -0.0888
  232DOPC  H17R31964  -0.526   1.898   3.405  0.9487 -0.1599 -1.6004
  232DOPC  H17S31965  -0.674   1.969   3.319  0.9132  2.9914 -1.0838
  232DOPC  C21831966  -0.685   1.976   3.537 -0.4646  0.1552  0.0965
  232DOPC  H18R31967  -0.726   2.077   3.559 -2.4370 -0.0661 -2.1022
  232DOPC  H18S31968  -0.616   1.946   3.619  0.8456 -1.8600 -1.6289
  232DOPC  H18T31969  -0.764   1.898   3.540 -0.5569  0.2744  1.5997
  232DOPC   C3331970   0.621   1.040   2.835 -0.2606 -0.0669 -0.0555
  232DOPC   H3X31971   0.720   1.006   2.796  0.0019  0.3838  0.2008
  232DOPC   H3Y31972   0.618   0.997   2.937  0.7492 -0.6099 -0.2389
  232DOPC   C3431973   0.619   1.194   2.833  0.3662  0.7849  0.1972
  232DOPC   H4X31974   0.617   1.233   2.729 -0.5232 -0.4076 -0.2553
  232DOPC   H4Y31975   0.711   1.234   2.881  0.7811 -0.1605  0.2193
  232DOPC   C3531976   0.505   1.252   2.923  0.2453  1.2881 -0.1863
  232DOPC   H5X31977   0.523   1.200   3.020 -1.5297  0.6416 -0.1829
  232DOPC   H5Y31978   0.404   1.215   2.898  0.5853 -0.0407  0.3068
  232DOPC   C3631979   0.513   1.404   2.953 -0.4534 -0.4301  0.5693
  232DOPC   H6X31980   0.609   1.426   3.003  0.4832 -0.1443 -1.2572
  232DOPC   H6Y31981   0.511   1.452   2.853 -0.0558 -1.0137  0.2741
  232DOPC   C3731982   0.396   1.453   3.048  0.1952 -0.0409  0.5082
  232DOPC   H7X31983   0.301   1.429   2.996  1.0962 -0.0825 -1.1867
  232DOPC   H7Y31984   0.407   1.399   3.145  0.9609  0.8092  0.9113
  232DOPC   C3831985   0.410   1.600   3.083  0.6619  0.1638  0.1917
  232DOPC   H8X31986   0.405   1.653   2.986 -3.0695 -1.7424 -0.8591
  232DOPC   H8Y31987   0.516   1.597   3.115  0.7049  1.3428  0.1934
  232DOPC   C3931988   0.305   1.660   3.178  0.1014 -0.0739 -0.9362
  232DOPC   H9X31989   0.201   1.634   3.152 -0.8664  0.2267  2.2228
  232DOPC  C31031990   0.338   1.745   3.278  0.7227  0.4175  0.5265
  232DOPC  H10X31991   0.255   1.790   3.335  0.9375  0.0042  1.1695
  232DOPC  C31131992   0.478   1.791   3.311  0.5584 -0.4092 -0.8568
  232DOPC  H11X31993   0.484   1.901   3.294  4.1507 -0.1912  0.7721
  232DOPC  H11Y31994   0.561   1.765   3.242  0.6971  0.7699 -1.1618
  232DOPC  C31231995   0.518   1.758   3.452  0.2756 -0.5088  0.5363
  232DOPC  H12X31996   0.455   1.823   3.516 -0.5316  0.9055 -1.6146
  232DOPC  H12Y31997   0.625   1.785   3.465 -0.2728  0.7850  2.9357
  232DOPC  C31331998   0.513   1.607   3.493  0.0502  0.5197  0.5203
  232DOPC  H13X31999   0.408   1.575   3.508 -0.4444  0.8582 -1.7785
  232DOPC  H13Y32000   0.551   1.544   3.409  1.4015  2.4870 -0.4101
  232DOPC  C31432001   0.599   1.587   3.625 -0.3524 -0.1994 -0.0968
  232DOPC  H14X32002   0.696   1.641   3.620 -1.3683  1.6483 -0.9044
  232DOPC  H14Y32003   0.540   1.639   3.704  1.3862  2.2365 -0.2811
  232DOPC  C31532004   0.618   1.434   3.651 -0.0353 -0.2412  0.3058
  232DOPC  H15X32005   0.688   1.405   3.570  0.0971  2.4653 -0.6627
  232DOPC  H15Y32006   0.521   1.385   3.631 -1.3535  1.1076  2.9198
  232DOPC  C31632007   0.660   1.403   3.791 -0.1834 -0.5820 -0.4840
  232DOPC  H16X32008   0.763   1.441   3.808  1.0470 -3.1642 -1.5358
  232DOPC  H16Y32009   0.590   1.455   3.859 -2.6856 -1.7308 -2.0350
  232DOPC  C31732010   0.666   1.250   3.813  0.1634 -0.3199 -0.1427
  232DOPC  H17X32011   0.578   1.196   3.773  1.7555 -2.8682 -0.4024
  232DOPC  H17Y32012   0.749   1.213   3.750  0.2331 -0.8687  0.2663
  232DOPC  C31832013   0.690   1.218   3.959 -1.0631  0.5966 -0.2198
  232DOPC  H18X32014   0.678   1.108   3.971 -2.4379  0.6487 -0.8253
  232DOPC  H18Y32015   0.790   1.256   3.988 -0.4069  0.0558 -1.6596
  232DOPC  H18Z32016   0.605   1.266   4.013 -4.8587 -1.4344 -3.7887
  233DOPC     N32017   3.341   7.088   2.077 -0.1455 -0.2264  0.2076
  233DOPC   C1232018   3.208   7.140   2.117  0.3781  0.4406 -0.1327
  233DOPC  H12A32019   3.211   7.205   2.204  1.0606  0.2777 -0.0294
  233DOPC  H12B32020   3.138   7.062   2.143  0.7150 -0.0222 -0.6162
  233DOPC   C1332021   3.436   7.197   2.030 -0.8217 -0.3761  0.1277
  233DOPC  H13A32022   3.417   7.214   1.925 -1.9532  0.1136  0.3958
  233DOPC  H13B32023   3.435   7.287   2.090  3.6872  0.2226 -0.3269
  233DOPC  H13C32024   3.541   7.173   2.024 -0.7014  0.2943 -0.6729
  233DOPC   C1432025   3.327   6.986   1.966  0.5482 -0.4423 -0.0619
  233DOPC  H14A32026   3.427   6.967   1.929  1.1887 -1.5083  2.0478
  233DOPC  H14B32027   3.288   6.893   2.005 -0.0976  0.2958  1.1035
  233DOPC  H14C32028   3.263   7.006   1.881 -0.5369 -1.2749  0.5167
  233DOPC   C1532029   3.421   7.017   2.187  0.4355 -0.4639 -0.0850
  233DOPC  H15A32030   3.362   6.932   2.217  0.6590 -0.6876 -0.2754
  233DOPC  H15B32031   3.440   7.075   2.276  1.2067 -0.5930 -0.1604
  233DOPC  H15C32032   3.518   6.976   2.162  1.5336  2.0197 -0.1922
  233DOPC   C1132033   3.124   7.217   2.010 -0.3975  0.7170 -0.3945
  233DOPC  H11A32034   3.134   7.173   1.909 -2.8931 -1.6818  0.2800
  233DOPC  H11B32035   3.015   7.215   2.031 -0.6964  3.0038 -1.4503
  233DOPC     P32036   3.092   7.468   2.080 -0.0359  0.0051 -0.3167
  233DOPC   O1332037   2.949   7.446   2.067 -0.2308 -0.3209  0.1486
  233DOPC   O1432038   3.144   7.602   2.037  0.5124 -0.2069 -0.5995
  233DOPC   O1232039   3.170   7.353   1.998 -0.3042 -0.0803  0.2371
  233DOPC   O1132040   3.134   7.439   2.232  0.0974 -0.1372 -0.0254
  233DOPC    C132041   3.086   7.518   2.343 -0.1089 -0.8419  0.6722
  233DOPC    HA32042   2.991   7.564   2.309 -0.2075 -2.5872 -1.6067
  233DOPC    HB32043   3.154   7.602   2.370 -0.7925  0.7347 -2.1371
  233DOPC    C232044   3.054   7.428   2.470 -0.2812 -0.0629 -0.5240
  233DOPC    HS32045   2.967   7.465   2.529 -1.5421 -2.2278 -0.9166
  233DOPC   O2132046   3.168   7.418   2.558  0.0370 -0.7811  0.2546
  233DOPC   C2132047   3.177   7.505   2.656  0.3602 -0.5288  0.2187
  233DOPC   O2232048   3.091   7.582   2.697  0.0835 -0.0466  0.0498
  233DOPC   C2232049   3.309   7.480   2.722  0.2349 -0.4708  0.6046
  233DOPC   H2R32050   3.364   7.577   2.724  0.7010 -0.5531 -2.8071
  233DOPC   H2S32051   3.367   7.406   2.663  0.0225 -0.4252  0.3373
  233DOPC    C332052   3.005   7.287   2.416  0.0879 -0.3608  0.7660
  233DOPC    HX32053   3.090   7.255   2.352  1.1326 -0.0677  1.9744
  233DOPC    HY32054   2.920   7.292   2.346  1.9692  0.7365 -1.5732
  233DOPC   O3132055   2.988   7.189   2.522 -0.4485  0.2307  0.1695
  233DOPC   C3132056   2.863   7.160   2.566  0.1418 -0.3846  0.6119
  233DOPC   O3232057   2.760   7.215   2.521  0.2625 -0.1507  0.3302
  233DOPC   C3232058   2.873   7.061   2.681 -0.1811 -0.5800 -0.5938
  233DOPC   H2X32059   2.891   6.957   2.644 -1.7725 -0.5928 -1.4087
  233DOPC   H2Y32060   2.962   7.103   2.732 -0.6895 -1.3374  0.9949
  233DOPC   C2332061   3.292   7.427   2.867  0.3697 -0.5473  0.8286
  233DOPC   H3R32062   3.198   7.464   2.914  1.1478  0.3227  1.7285
  233DOPC   H3S32063   3.372   7.455   2.938  0.0270 -0.8621  1.3457
  233DOPC   C2432064   3.276   7.269   2.884  0.2512 -0.2862  0.3255
  233DOPC   H4R32065   3.335   7.219   2.805 -0.3238  0.2930 -0.4932
  233DOPC   H4S32066   3.173   7.233   2.860  0.5899 -0.6031 -0.6978
  233DOPC   C2532067   3.312   7.211   3.025  0.8235 -0.3878  0.5796
  233DOPC   H5R32068   3.408   7.260   3.049  0.9920  0.7050 -2.0501
  233DOPC   H5S32069   3.337   7.103   3.014  0.9498 -0.4819  1.6895
  233DOPC   C2632070   3.205   7.256   3.126 -0.1468  0.2287  0.1462
  233DOPC   H6R32071   3.111   7.202   3.104  0.0624  0.4483 -1.4477
  233DOPC   H6S32072   3.169   7.360   3.107  1.3339  0.5813 -1.0204
  233DOPC   C2732073   3.263   7.248   3.275 -0.3414  0.2112 -0.6451
  233DOPC   H7R32074   3.344   7.322   3.294  0.2301 -0.9434  1.7832
  233DOPC   H7S32075   3.305   7.145   3.281 -0.8118  0.0058 -0.8664
  233DOPC   C2832076   3.145   7.265   3.376  0.0311  0.3060  0.3711
  233DOPC   H8R32077   3.056   7.219   3.328 -0.7564  1.6908  0.4426
  233DOPC   H8S32078   3.129   7.373   3.397  0.4733  0.0788  2.0222
  233DOPC   C2932079   3.181   7.206   3.511 -0.0167  0.0928  0.5615
  233DOPC   H9R32080   3.241   7.114   3.510  0.5001  0.4137  1.1638
  233DOPC  C21032081   3.177   7.256   3.633 -0.6661 -0.4853  0.0280
  233DOPC  H10R32082   3.213   7.195   3.718  0.2806 -1.1668 -0.8238
  233DOPC  C21132083   3.118   7.389   3.672 -0.0678 -0.5436  0.3000
  233DOPC  H11R32084   3.113   7.456   3.584 -1.0715 -1.1130 -0.0878
  233DOPC  H11S32085   3.176   7.435   3.755  0.1359  0.0010 -0.1379
  233DOPC  C21232086   2.969   7.371   3.719 -0.0403 -0.1108  0.1600
  233DOPC  H12R32087   2.901   7.314   3.652 -1.3810  0.8983  0.6031
  233DOPC  H12S32088   2.926   7.469   3.748 -0.4911 -0.1693 -0.2920
  233DOPC  C21332089   2.957   7.276   3.840  0.3311  0.7629 -0.2553
  233DOPC  H13R32090   2.983   7.173   3.808  0.0707  0.9454 -1.0993
  233DOPC  H13S32091   2.847   7.272   3.849  0.4682 -1.7550  1.2132
  233DOPC  C21432092   3.038   7.319   3.965  0.7329  0.2109  0.2143
  233DOPC  H14R32093   3.014   7.425   3.984 -0.0116  0.3383 -1.3166
  233DOPC  H14S32094   3.149   7.308   3.958  0.8823  1.1320  0.9413
  233DOPC  C21532095   2.999   7.231   4.080 -0.6628  0.3692  0.0156
  233DOPC  H15R32096   2.991   7.123   4.053  2.7249  0.3203 -1.2373
  233DOPC  H15S32097   2.897   7.253   4.117 -0.5999  0.3010  0.2332
  233DOPC  C21632098   3.096   7.237   4.200 -0.0176  0.1033  0.2232
  233DOPC  H16R32099   3.202   7.217   4.175  0.1758  1.0306  0.2502
  233DOPC  H16S32100   3.058   7.166   4.277 -2.5490  1.9195  0.7870
  233DOPC  C21732101   3.102   7.374   4.271 -0.2488 -0.1079 -0.5439
  233DOPC  H17R32102   2.995   7.394   4.294 -0.0890 -1.5880  1.8347
  233DOPC  H17S32103   3.145   7.448   4.200 -0.4565  0.7992  0.2573
  233DOPC  C21832104   3.170   7.366   4.412 -0.5439  0.0700 -0.3804
  233DOPC  H18R32105   3.278   7.346   4.398 -0.6994 -1.1117  0.0479
  233DOPC  H18S32106   3.130   7.271   4.453  3.3857 -1.5362  0.0769
  233DOPC  H18T32107   3.167   7.455   4.478 -1.2557 -0.4587  0.3197
  233DOPC   C3332108   2.750   7.063   2.771 -0.4985  0.1676  0.3814
  233DOPC   H3X32109   2.762   6.978   2.842 -0.1985  0.2622  0.4447
  233DOPC   H3Y32110   2.662   7.028   2.712 -0.9361 -0.5820  1.4460
  233DOPC   C3432111   2.725   7.195   2.851 -0.0378 -0.0332  0.1578
  233DOPC   H4X32112   2.632   7.164   2.904 -0.1261 -1.8060 -0.9515
  233DOPC   H4Y32113   2.699   7.283   2.789 -0.9259 -0.5893 -0.2936
  233DOPC   C3532114   2.838   7.222   2.952  0.1733  0.6689 -0.7385
  233DOPC   H5X32115   2.930   7.236   2.890 -0.7498  3.2321 -1.6823
  233DOPC   H5Y32116   2.851   7.134   3.018 -0.5481  1.4123  0.4249
  233DOPC   C3632117   2.814   7.346   3.045  0.8429 -0.0947  0.4032
  233DOPC   H6X32118   2.912   7.375   3.090  0.6100 -0.7796  1.3836
  233DOPC   H6Y32119   2.778   7.427   2.979  2.2987  0.6817  0.5123
  233DOPC   C3732120   2.703   7.330   3.144 -0.4998 -0.1580 -0.3775
  233DOPC   H7X32121   2.606   7.340   3.090 -1.3213 -0.5302  0.9873
  233DOPC   H7Y32122   2.699   7.226   3.183 -0.7210  0.2591  0.7202
  233DOPC   C3832123   2.705   7.433   3.264 -0.3740  0.2408  0.0458
  233DOPC   H8X32124   2.716   7.537   3.226  1.2827 -0.2488 -0.8997
  233DOPC   H8Y32125   2.794   7.421   3.328 -1.5725  1.5893  2.0864
  233DOPC   C3932126   2.584   7.424   3.356  0.6881  0.0048 -0.0838
  233DOPC   H9X32127   2.526   7.517   3.340  1.3916  0.3394 -0.7844
  233DOPC  C31032128   2.553   7.326   3.438  0.3624  0.4897  0.3247
  233DOPC  H10X32129   2.465   7.337   3.503 -0.0195  1.5270 -0.3356
  233DOPC  C31132130   2.645   7.212   3.464 -0.4243 -0.0134  0.1481
  233DOPC  H11X32131   2.750   7.246   3.450 -0.1078 -1.1303 -0.3370
  233DOPC  H11Y32132   2.623   7.115   3.413  1.5229 -0.2346 -0.3555
  233DOPC  C31232133   2.648   7.172   3.619 -0.6733  0.1672  0.2569
  233DOPC  H12X32134   2.633   7.262   3.682  0.4972  0.3172  0.3448
  233DOPC  H12Y32135   2.750   7.134   3.642  0.4225  1.5885 -1.9403
  233DOPC  C31332136   2.536   7.078   3.661 -0.2267  0.1223 -0.1354
  233DOPC  H13X32137   2.443   7.138   3.662 -0.1496  0.5181 -3.4874
  233DOPC  H13Y32138   2.530   6.994   3.588 -3.4963  0.7278 -0.6906
  233DOPC  C31432139   2.560   7.021   3.802 -0.0699  0.2189  0.0963
  233DOPC  H14X32140   2.648   6.953   3.802  1.0299  1.4577 -3.0365
  233DOPC  H14Y32141   2.574   7.107   3.872 -1.1561  0.7450 -0.3229
  233DOPC  C31532142   2.436   6.942   3.857 -0.0910  0.4889 -0.5588
  233DOPC  H15X32143   2.414   6.864   3.782 -0.6248  1.5254 -1.5222
  233DOPC  H15Y32144   2.345   7.006   3.866  0.5805  1.4151 -0.1626
  233DOPC  C31632145   2.460   6.884   3.991  0.2107  0.9663 -0.1563
  233DOPC  H16X32146   2.548   6.816   3.990 -0.9045 -0.5249 -0.3014
  233DOPC  H16Y32147   2.467   6.962   4.070 -0.1709  1.4864 -0.6306
  233DOPC  C31732148   2.333   6.803   4.037  0.0915  0.2101 -1.1414
  233DOPC  H17X32149   2.243   6.868   4.045  0.8005  1.3895 -2.3819
  233DOPC  H17Y32150   2.314   6.720   3.965  1.4302 -0.4875 -0.7171
  233DOPC  C31832151   2.348   6.740   4.178  0.2187  0.3019  0.1804
  233DOPC  H18X32152   2.259   6.679   4.204 -1.3443  2.6942  0.7702
  233DOPC  H18Y32153   2.425   6.663   4.201  2.1317  1.4680 -1.8521
  233DOPC  H18Z32154   2.338   6.819   4.256 -0.6410 -0.7047  1.1217
  234DOPC     N32155   0.886   6.546   1.499  0.1104 -0.0344 -0.1230
  234DOPC   C1232156   0.773   6.481   1.575  0.1766  0.2299 -0.3858
  234DOPC  H12A32157   0.690   6.458   1.510 -0.1709  0.5569 -0.0633
  234DOPC  H12B32158   0.740   6.558   1.644 -1.0517 -2.0626  1.7261
  234DOPC   C1332159   0.999   6.573   1.589  0.0079  0.3218 -0.6771
  234DOPC  H13A32160   0.959   6.633   1.669 -1.1547 -0.4527 -0.6558
  234DOPC  H13B32161   1.036   6.480   1.629  2.8675 -0.5642 -4.6527
  234DOPC  H13C32162   1.075   6.630   1.537 -0.5412  1.0800 -0.6732
  234DOPC   C1432163   0.846   6.683   1.448  0.7174 -0.1930  0.0912
  234DOPC  H14A32164   0.927   6.724   1.390 -0.3963 -0.8462 -2.0651
  234DOPC  H14B32165   0.763   6.667   1.379 -0.6573  0.4033  1.5554
  234DOPC  H14C32166   0.819   6.751   1.527 -1.0478 -1.4846  0.6806
  234DOPC   C1532167   0.935   6.456   1.395  0.3504  0.7138 -0.1327
  234DOPC  H15A32168   0.974   6.368   1.443 -0.0294  0.5222 -0.1681
  234DOPC  H15B32169   1.021   6.495   1.342  0.3497  0.4459 -0.3331
  234DOPC  H15C32170   0.861   6.420   1.324  0.7129 -0.4219  0.0475
  234DOPC   C1132171   0.792   6.345   1.657  0.9824 -0.1878  0.2291
  234DOPC  H11A32172   0.881   6.365   1.720  0.2342  0.6477  1.0569
  234DOPC  H11B32173   0.702   6.328   1.721  0.9134  1.1082  0.5056
  234DOPC     P32174   0.906   6.127   1.568 -0.0561  0.2611 -0.0480
  234DOPC   O1332175   1.040   6.192   1.594 -0.6918 -0.7783 -1.0389
  234DOPC   O1432176   0.905   6.044   1.441 -0.1580  0.2704  0.0800
  234DOPC   O1232177   0.796   6.237   1.559 -0.1049  0.8713 -0.0432
  234DOPC   O1132178   0.868   6.038   1.694  0.1876 -0.0395  0.1908
  234DOPC    C132179   0.954   5.928   1.724 -0.0572 -0.2207  0.6222
  234DOPC    HA32180   1.042   5.925   1.656 -0.2002 -0.6096  0.4512
  234DOPC    HB32181   0.901   5.831   1.730  0.4637 -0.6844 -1.5081
  234DOPC    C232182   1.035   5.945   1.857 -0.0174  0.3994 -0.5096
  234DOPC    HS32183   1.090   5.850   1.871  0.1373  0.6015  0.2899
  234DOPC   O2132184   0.947   5.968   1.970  0.2619  0.6726 -0.4465
  234DOPC   C2132185   0.849   5.883   1.998  0.3356  0.8084  0.6136
  234DOPC   O2232186   0.814   5.784   1.939 -0.4343 -0.3498  0.7332
  234DOPC   C2232187   0.784   5.921   2.125  0.9728 -0.3993  0.1936
  234DOPC   H2R32188   0.717   5.839   2.159  0.7047  0.1726  1.0915
  234DOPC   H2S32189   0.720   6.010   2.107 -0.9978 -1.7092  0.3755
  234DOPC    C332190   1.141   6.053   1.851 -0.0917  0.0496  0.2467
  234DOPC    HX32191   1.088   6.144   1.818  0.3157  0.4762  0.7480
  234DOPC    HY32192   1.213   6.010   1.778  1.5957 -0.0726  1.9037
  234DOPC   O3132193   1.211   6.060   1.974  0.3913 -0.1738  0.4225
  234DOPC   C3132194   1.162   6.150   2.057 -0.5186  0.0445  0.5961
  234DOPC   O3232195   1.064   6.227   2.047 -0.5233  0.2863  0.7579
  234DOPC   C3232196   1.263   6.150   2.173  0.4396 -0.2637 -0.3201
  234DOPC   H2X32197   1.262   6.045   2.211 -0.2781  0.2112  1.0491
  234DOPC   H2Y32198   1.359   6.191   2.134  0.6449 -0.9462 -0.5563
  234DOPC   C2332199   0.885   5.949   2.243 -0.6433  0.1588  0.0980
  234DOPC   H3R32200   0.945   6.038   2.214  0.0690 -0.4633 -0.3523
  234DOPC   H3S32201   0.957   5.866   2.250 -2.0014 -1.1724 -1.0812
  234DOPC   C2432202   0.832   5.977   2.383 -0.1584 -0.2818  0.4557
  234DOPC   H4R32203   0.754   5.900   2.400  0.2189 -0.9973 -0.8852
  234DOPC   H4S32204   0.779   6.074   2.377  2.0332  0.9717  0.2851
  234DOPC   C2532205   0.936   5.974   2.499 -0.5842  0.6671 -0.0843
  234DOPC   H5R32206   0.900   6.043   2.578  0.9191  1.9016 -0.4280
  234DOPC   H5S32207   1.035   6.018   2.474 -0.3755  0.9256  1.1285
  234DOPC   C2632208   0.971   5.835   2.563 -0.4465  0.8335  0.0035
  234DOPC   H6R32209   1.080   5.834   2.581  0.0219  0.3447 -2.4994
  234DOPC   H6S32210   0.948   5.765   2.480  3.4416  1.3670 -1.7442
  234DOPC   C2732211   0.877   5.808   2.684 -0.5304 -0.3595  0.3724
  234DOPC   H7R32212   0.772   5.821   2.651  0.3894  1.4165 -2.2308
  234DOPC   H7S32213   0.894   5.896   2.751 -0.3707  1.0811 -1.4788
  234DOPC   C2832214   0.902   5.672   2.747 -0.3600 -1.0910 -0.1106
  234DOPC   H8R32215   1.008   5.675   2.780  0.5215 -4.8141 -2.1459
  234DOPC   H8S32216   0.903   5.588   2.676 -0.4758 -0.7689 -0.4965
  234DOPC   C2932217   0.795   5.658   2.852 -0.2507 -0.3094 -0.7557
  234DOPC   H9R32218   0.692   5.667   2.813 -1.3058 -0.0571  1.9222
  234DOPC  C21032219   0.816   5.635   2.981 -0.1609  0.5421  0.0388
  234DOPC  H10R32220   0.720   5.625   3.034 -0.3494  0.3513 -0.3367
  234DOPC  C21132221   0.944   5.603   3.056  0.1204 -0.2630 -0.0713
  234DOPC  H11R32222   0.965   5.695   3.116 -1.7247  1.5116 -2.0062
  234DOPC  H11S32223   1.035   5.586   2.995  1.2424 -1.5830  1.8487
  234DOPC  C21232224   0.921   5.490   3.155 -0.2262  0.2987  0.0248
  234DOPC  H12R32225   0.914   5.391   3.106  0.9731 -0.5247  1.4258
  234DOPC  H12S32226   0.817   5.499   3.194 -0.0415 -2.3928  1.3681
  234DOPC  C21332227   1.031   5.484   3.258 -0.3802 -0.0408 -0.1454
  234DOPC  H13R32228   1.131   5.505   3.215  1.2001 -2.7472  1.9034
  234DOPC  H13S32229   1.027   5.390   3.317 -0.7124  0.2826  0.3567
  234DOPC  C21432230   1.006   5.591   3.372 -0.9017 -0.1631  0.2154
  234DOPC  H14R32231   0.905   5.580   3.416 -0.8069  0.0262  0.4785
  234DOPC  H14S32232   1.003   5.694   3.329 -1.8271 -0.4772 -0.5230
  234DOPC  C21532233   1.105   5.573   3.482  0.0093  0.1240 -0.4507
  234DOPC  H15R32234   1.204   5.585   3.432 -0.1529  2.5619 -0.3236
  234DOPC  H15S32235   1.089   5.473   3.527 -0.9564 -0.6319 -2.3563
  234DOPC  C21632236   1.093   5.692   3.577 -0.0142 -0.5743 -0.7289
  234DOPC  H16R32237   0.995   5.693   3.630  0.7337 -2.9209  0.8549
  234DOPC  H16S32238   1.100   5.785   3.517 -1.7388  1.2773  1.7664
  234DOPC  C21732239   1.200   5.684   3.685  0.0945 -0.4515 -0.3444
  234DOPC  H17R32240   1.200   5.773   3.750 -0.5557 -0.5560 -0.1983
  234DOPC  H17S32241   1.302   5.662   3.646  0.5035 -1.2475  1.1159
  234DOPC  C21832242   1.170   5.560   3.774  0.1277  0.5139 -0.2739
  234DOPC  H18R32243   1.152   5.468   3.714 -0.1210  1.6200 -1.9393
  234DOPC  H18S32244   1.082   5.567   3.842  1.4844 -0.7673  1.7380
  234DOPC  H18T32245   1.251   5.530   3.843 -2.4645 -2.2162  1.8816
  234DOPC   C3332246   1.218   6.246   2.289  0.3754  0.2070 -0.5445
  234DOPC   H3X32247   1.108   6.232   2.301  0.4301  0.5895  0.5432
  234DOPC   H3Y32248   1.235   6.355   2.273 -3.7076  0.8608 -1.5683
  234DOPC   C3432249   1.279   6.207   2.428  0.7412  0.2136  0.0470
  234DOPC   H4X32250   1.387   6.231   2.427  0.4628  1.5912 -1.5808
  234DOPC   H4Y32251   1.268   6.099   2.451 -1.5888  0.6481  1.3293
  234DOPC   C3532252   1.212   6.285   2.546 -0.7132 -0.6418  0.9640
  234DOPC   H5X32253   1.101   6.281   2.537 -0.6745  1.0059 -0.7494
  234DOPC   H5Y32254   1.235   6.392   2.528 -1.2305 -0.7501 -0.5116
  234DOPC   C3632255   1.282   6.243   2.672  0.2429 -0.1566  0.3033
  234DOPC   H6X32256   1.391   6.233   2.656  0.4935  0.1965  1.6927
  234DOPC   H6Y32257   1.280   6.333   2.738 -1.0734 -0.0852  0.2033
  234DOPC   C3732258   1.222   6.114   2.734 -0.8200  0.3433  0.1762
  234DOPC   H7X32259   1.115   6.126   2.763 -0.3520  0.6161  1.9319
  234DOPC   H7Y32260   1.239   6.048   2.647  2.1929  2.7827 -1.2601
  234DOPC   C3832261   1.292   6.067   2.861  0.2292  0.2254  0.0976
  234DOPC   H8X32262   1.261   6.134   2.944 -2.7419  1.2101 -1.6631
  234DOPC   H8Y32263   1.401   6.074   2.842 -0.0407  0.4959 -1.4396
  234DOPC   C3932264   1.251   5.927   2.896  0.2121 -0.2609  0.2880
  234DOPC   H9X32265   1.327   5.851   2.871  1.1640  0.5448  0.6872
  234DOPC  C31032266   1.134   5.888   2.956  0.2847  0.3499  0.4118
  234DOPC  H10X32267   1.120   5.781   2.974  0.8074  0.5717  2.3822
  234DOPC  C31132268   1.020   5.977   2.998 -0.0899 -0.2903 -0.6065
  234DOPC  H11X32269   0.919   5.941   2.973 -1.6893  3.1948  0.1412
  234DOPC  H11Y32270   1.028   6.073   2.943 -0.6081 -0.0389 -0.2507
  234DOPC  C31232271   1.024   6.008   3.152 -0.5847 -0.3883  0.5880
  234DOPC  H12X32272   1.002   5.918   3.214  2.0563 -1.6912 -0.2003
  234DOPC  H12Y32273   0.944   6.082   3.170 -1.6898 -1.5051  0.3539
  234DOPC  C31332274   1.144   6.086   3.199  0.1827 -0.2020  0.2848
  234DOPC  H13X32275   1.229   6.022   3.165 -0.4125 -0.2033 -1.2711
  234DOPC  H13Y32276   1.153   6.183   3.147  0.7982 -0.8084 -0.7926
  234DOPC  C31432277   1.162   6.119   3.349  0.2134  0.4633 -0.3229
  234DOPC  H14X32278   1.069   6.171   3.384 -0.9315 -0.9040 -1.2300
  234DOPC  H14Y32279   1.162   6.025   3.407 -0.0432  0.6439 -0.0241
  234DOPC  C31532280   1.290   6.197   3.387 -0.2613  0.5468  0.5635
  234DOPC  H15X32281   1.309   6.278   3.313 -0.5115 -0.5710 -0.7644
  234DOPC  H15Y32282   1.373   6.124   3.382 -0.2388  0.6151 -0.2173
  234DOPC  C31632283   1.285   6.260   3.522 -0.0128  0.1346  0.1008
  234DOPC  H16X32284   1.380   6.310   3.549 -0.2292 -0.5959  2.5092
  234DOPC  H16Y32285   1.203   6.334   3.530  0.5048  0.7346 -0.0666
  234DOPC  C31732286   1.256   6.156   3.638 -0.2871  0.2102  0.1191
  234DOPC  H17X32287   1.150   6.124   3.628 -0.5635  1.4807 -1.7062
  234DOPC  H17Y32288   1.335   6.079   3.641 -0.0067  0.5334  1.4808
  234DOPC  C31832289   1.256   6.225   3.780 -0.9732 -0.1671  0.1908
  234DOPC  H18X32290   1.184   6.309   3.777 -1.2492 -0.4234 -0.9049
  234DOPC  H18Y32291   1.227   6.153   3.860  0.7389  1.2823  2.2171
  234DOPC  H18Z32292   1.359   6.261   3.797 -1.5704  1.4193  0.5781
  235DOPC     N32293   9.865   5.819   1.367 -0.0500 -0.2933 -0.0143
  235DOPC   C1232294   9.820   5.843   1.508  0.3336  0.3970 -0.2764
  235DOPC  H12A32295   9.723   5.799   1.526  1.4115 -0.9154  3.0691
  235DOPC  H12B32296   9.797   5.946   1.532 -0.0588  0.3268 -0.3435
  235DOPC   C1332297   9.975   5.916   1.338  0.1032  0.5098  0.0765
  235DOPC  H13A32298  10.010   5.910   1.236  1.0632  2.1455  0.2740
  235DOPC  H13B32299   9.949   6.018   1.359  1.7033  0.7087  1.3519
  235DOPC  H13C32300  10.058   5.897   1.405 -1.0747  0.0246  1.4626
  235DOPC   C1432301   9.753   5.842   1.268 -0.8005  0.2580  0.0501
  235DOPC  H14A32302   9.776   5.813   1.166 -2.6020  0.4290 -0.4268
  235DOPC  H14B32303   9.664   5.785   1.291  0.8965 -1.4449  3.0945
  235DOPC  H14C32304   9.715   5.942   1.269 -1.1605  0.1412  1.7666
  235DOPC   C1532305   9.933   5.688   1.343 -0.7346 -0.2169  0.1969
  235DOPC  H15A32306   9.869   5.606   1.373 -0.0425 -0.8050  0.0899
  235DOPC  H15B32307  10.017   5.682   1.410 -1.0919  2.9026  1.0825
  235DOPC  H15C32308   9.970   5.691   1.242  0.0265 -0.3393  0.4640
  235DOPC   C1132309   9.923   5.795   1.615  0.0317 -0.6025  0.1042
  235DOPC  H11A32310   9.876   5.819   1.713  0.5970  2.9033 -0.3611
  235DOPC  H11B32311   9.940   5.685   1.618  0.0317 -0.5906  0.4909
  235DOPC     P32312  10.171   5.851   1.659 -0.4517  0.6335 -0.4297
  235DOPC   O1332313  10.253   5.970   1.626  0.1644 -0.1368 -0.1433
  235DOPC   O1432314  10.206   5.718   1.596  0.1398 -0.1493  0.1433
  235DOPC   O1232315  10.027   5.889   1.615  0.4250 -0.1542  0.3223
  235DOPC   O1132316  10.163   5.839   1.819 -0.0561 -0.2863  0.3924
  235DOPC    C132317  10.102   5.946   1.889 -0.0874  0.4385  0.3795
  235DOPC    HA32318  10.007   5.983   1.843  0.8722  1.6154 -0.7175
  235DOPC    HB32319  10.170   6.033   1.882  3.1692 -1.9940 -1.1128
  235DOPC    C232320  10.065   5.927   2.040  0.7338 -0.9018  0.0869
  235DOPC    HS32321  10.042   6.025   2.087  1.4166 -1.1196  0.9193
  235DOPC   O2132322  10.165   5.856   2.117 -0.9299  0.2719 -0.2017
  235DOPC   C2132323  10.280   5.937   2.144 -0.4573  0.3495 -0.1031
  235DOPC   O2232324  10.288   6.050   2.112 -0.6161 -0.1829 -0.0026
  235DOPC   C2232325  10.388   5.859   2.211  0.5604 -0.3234  0.4927
  235DOPC   H2R32326  10.432   5.784   2.142  0.9742  0.6401 -0.3066
  235DOPC   H2S32327  10.348   5.811   2.304 -2.9326  0.3128 -0.5219
  235DOPC    C332328   9.928   5.853   2.056  0.0148 -0.1721 -0.2805
  235DOPC    HX32329   9.947   5.757   2.004  2.5574  0.3896 -0.4996
  235DOPC    HY32330   9.840   5.906   2.014 -0.8822 -0.4995  1.0908
  235DOPC   O3132331   9.908   5.819   2.194 -0.2522  0.1965 -0.2942
  235DOPC   C3132332   9.863   5.920   2.268 -0.4679  0.1028 -0.0932
  235DOPC   O3232333   9.830   6.027   2.228 -0.0314 -0.4398  0.5601
  235DOPC   C3232334   9.873   5.879   2.411 -0.3316 -0.0584 -0.3190
  235DOPC   H2X32335   9.808   5.958   2.454 -3.5468 -1.9648 -1.2724
  235DOPC   H2Y32336   9.822   5.780   2.414 -1.6278  0.6038  0.3753
  235DOPC   C2332337  10.495   5.953   2.249 -0.0566 -0.3428  0.2050
  235DOPC   H3R32338  10.467   6.050   2.296  1.7349 -0.1197  0.8979
  235DOPC   H3S32339  10.567   5.973   2.167 -0.1350 -2.0440 -0.3013
  235DOPC   C2432340  10.575   5.892   2.363 -0.2989  0.5707 -0.0129
  235DOPC   H4R32341  10.628   5.804   2.321 -2.5682  0.0017 -1.9355
  235DOPC   H4S32342  10.512   5.864   2.450  0.5990 -2.5200 -0.2028
  235DOPC   C2532343  10.695   5.982   2.388 -0.3152  0.5312  0.7615
  235DOPC   H5R32344  10.736   6.026   2.295 -1.7978 -0.5572 -0.4519
  235DOPC   H5S32345  10.786   5.928   2.423 -1.7521 -2.0210  0.8070
  235DOPC   C2632346  10.651   6.091   2.483  0.3758  0.1370 -0.8803
  235DOPC   H6R32347  10.588   6.052   2.566 -1.2680  0.1590 -2.0670
  235DOPC   H6S32348  10.607   6.174   2.423 -0.2064  0.8302  0.4567
  235DOPC   C2732349  10.770   6.175   2.534  0.5915 -0.1973  0.4725
  235DOPC   H7R32350  10.816   6.219   2.443 -1.0679 -0.7853 -0.6981
  235DOPC   H7S32351  10.836   6.103   2.586  2.8376 -1.3711 -3.5998
  235DOPC   C2832352  10.724   6.270   2.641  0.8240  0.9067 -0.1478
  235DOPC   H8R32353  10.676   6.223   2.730  0.8836 -0.6148 -0.8807
  235DOPC   H8S32354  10.641   6.336   2.611  0.2117  0.4378  0.4763
  235DOPC   C2932355  10.836   6.356   2.691  0.2716  0.3730 -0.4383
  235DOPC   H9R32356  10.900   6.396   2.611  2.5174  0.3381  1.2481
  235DOPC  C21032357  10.875   6.391   2.815  0.0148  0.2438  0.2692
  235DOPC  H10R32358  10.968   6.450   2.815 -0.2672  0.7150  1.3697
  235DOPC  C21132359  10.810   6.364   2.950  0.6552 -0.2615 -0.2510
  235DOPC  H11R32360  10.749   6.272   2.952 -0.9012  0.7240  1.9085
  235DOPC  H11S32361  10.734   6.441   2.975  1.7241  0.4909  0.7953
  235DOPC  C21232362  10.908   6.366   3.065  0.1108 -0.3635 -0.2637
  235DOPC  H12R32363  10.958   6.464   3.077 -1.6728  0.7244 -1.1980
  235DOPC  H12S32364  10.990   6.293   3.046  0.6530  0.0246  0.5580
  235DOPC  C21332365  10.845   6.321   3.201 -0.4341 -0.0868 -0.5789
  235DOPC  H13R32366  10.799   6.220   3.191 -1.6249  0.4385 -0.5699
  235DOPC  H13S32367  10.761   6.387   3.229  0.0415  0.4031 -0.2700
  235DOPC  C21432368  10.940   6.327   3.322  0.6269 -0.1875 -0.0326
  235DOPC  H14R32369  10.953   6.431   3.359  0.0663 -0.4474  0.9467
  235DOPC  H14S32370  11.045   6.305   3.294  0.7584  0.9320 -0.4452
  235DOPC  C21532371  10.901   6.227   3.439 -0.1871 -0.1821  0.2058
  235DOPC  H15R32372  10.913   6.119   3.415 -2.3327 -0.2096 -0.9356
  235DOPC  H15S32373  10.792   6.244   3.452 -0.6217  0.2213 -3.1263
  235DOPC  C21632374  10.963   6.268   3.580 -0.5146  0.3709 -0.0966
  235DOPC  H16R32375  10.934   6.369   3.614  0.4597  0.3629  0.8077
  235DOPC  H16S32376  11.073   6.276   3.571 -0.4266 -0.8438 -0.2997
  235DOPC  C21732377  10.931   6.165   3.695 -0.1994 -0.1164  0.9437
  235DOPC  H17R32378  10.965   6.217   3.788  0.2013  2.4363 -0.5368
  235DOPC  H17S32379  10.993   6.074   3.680 -0.8604 -0.6483  1.3800
  235DOPC  C21832380  10.790   6.141   3.720  0.4993 -0.3671  0.2408
  235DOPC  H18R32381  10.746   6.055   3.665  1.3558  0.5797 -2.0357
  235DOPC  H18S32382  10.727   6.229   3.693 -1.5795 -2.3329 -1.8266
  235DOPC  H18T32383  10.769   6.113   3.826 -0.9566  3.8521  1.2400
  235DOPC   C3332384  10.014   5.874   2.479 -0.6719 -0.1938 -0.1245
  235DOPC   H3X32385  10.079   5.812   2.414 -3.2926 -2.5560 -0.6512
  235DOPC   H3Y32386  10.003   5.823   2.577 -0.8508  0.7411  0.3525
  235DOPC   C3432387  10.075   6.013   2.493 -0.1385 -0.4720 -0.3502
  235DOPC   H4X32388   9.999   6.087   2.525  0.4072 -0.1093  0.1370
  235DOPC   H4Y32389  10.094   6.037   2.386  0.5374 -1.9526 -0.5856
  235DOPC   C3532390  10.201   6.025   2.574  0.8710  0.6814  0.1396
  235DOPC   H5X32391  10.259   6.118   2.558  0.3203  1.0007 -0.0377
  235DOPC   H5Y32392  10.274   5.947   2.544 -0.1207  0.1764 -1.0515
  235DOPC   C3632393  10.178   6.011   2.728  0.6763  0.4940 -0.3135
  235DOPC   H6X32394  10.113   6.095   2.760  1.7380  1.0511  0.4341
  235DOPC   H6Y32395  10.109   5.925   2.748 -0.7437  1.9332  1.4077
  235DOPC   C3732396  10.312   6.008   2.808 -0.7041 -0.6902 -0.8140
  235DOPC   H7X32397  10.373   5.922   2.772  1.1444 -0.3479  1.2943
  235DOPC   H7Y32398  10.359   6.106   2.785 -1.7615  0.2498  0.8638
  235DOPC   C3832399  10.291   6.003   2.957 -0.6004 -0.2927 -0.2615
  235DOPC   H8X32400  10.240   6.094   2.995 -0.6997  0.2845 -1.7108
  235DOPC   H8Y32401  10.396   5.998   2.993 -0.9383  1.0549  1.0265
  235DOPC   C3932402  10.224   5.877   3.006  0.3949  0.2478  0.1215
  235DOPC   H9X32403  10.274   5.796   2.952  1.1370  0.7198  0.0820
  235DOPC  C31032404  10.117   5.874   3.092 -0.2059 -0.0334  0.1584
  235DOPC  H10X32405  10.074   5.775   3.117 -0.4434 -0.0495 -0.2874
  235DOPC  C31132406  10.048   5.990   3.162 -0.3768 -0.0417  0.3781
  235DOPC  H11X32407  10.121   6.070   3.183 -1.0203  0.3322  1.2600
  235DOPC  H11Y32408  10.012   5.958   3.263  0.2876 -4.4441 -0.5984
  235DOPC  C31232409   9.935   6.052   3.076  0.6950  0.0623 -0.9644
  235DOPC  H12X32410   9.968   6.092   2.978 -0.7076  1.0307 -1.0788
  235DOPC  H12Y32411   9.909   6.145   3.131  1.7055  0.2683 -0.8229
  235DOPC  C31332412   9.814   5.963   3.064 -0.4179 -0.2206 -0.0558
  235DOPC  H13X32413   9.727   6.019   3.022 -0.9137 -1.1438 -0.2910
  235DOPC  H13Y32414   9.866   5.890   2.999  0.4820 -0.0521  0.4601
  235DOPC  C31432415   9.769   5.896   3.202 -0.4033 -0.1618 -0.1681
  235DOPC  H14X32416   9.697   5.816   3.175 -0.9964  0.4006 -0.2802
  235DOPC  H14Y32417   9.854   5.845   3.253  1.3921 -0.0766 -2.8628
  235DOPC  C31532418   9.706   5.996   3.298 -0.3422 -0.2794 -0.1218
  235DOPC  H15X32419   9.617   6.049   3.258 -0.9377 -0.9374  0.3134
  235DOPC  H15Y32420   9.776   6.080   3.319 -1.0950  0.1985  0.5477
  235DOPC  C31632421   9.671   5.930   3.435 -0.5390 -0.2242 -0.1663
  235DOPC  H16X32422   9.634   5.829   3.408  1.4284 -0.0410 -4.4582
  235DOPC  H16Y32423   9.760   5.909   3.499 -0.0199  0.6572 -0.5777
  235DOPC  C31732424   9.562   6.013   3.506 -0.1559 -0.5470 -0.4145
  235DOPC  H17X32425   9.610   6.113   3.514  2.4460 -1.7698  0.2124
  235DOPC  H17Y32426   9.468   5.998   3.449 -0.1467 -0.1979 -0.5245
  235DOPC  C31832427   9.537   5.989   3.653  0.5714  1.1514  0.1392
  235DOPC  H18X32428   9.625   6.004   3.720  0.8891  0.3232 -0.0842
  235DOPC  H18Y32429   9.456   6.058   3.683 -0.6744 -0.4735  0.6844
  235DOPC  H18Z32430   9.509   5.883   3.675 -1.5947  1.8154  0.8491
  236DOPC     N32431   9.006   9.777   1.672 -0.2625  0.3493 -0.0769
  236DOPC   C1232432   9.058   9.756   1.820 -0.0873  0.1476  0.1454
  236DOPC  H12A32433   9.166   9.755   1.820 -0.0309  1.7974 -1.2935
  236DOPC  H12B32434   9.031   9.655   1.846 -1.1645 -0.0441 -1.5398
  236DOPC   C1332435   8.858   9.752   1.662  0.1914 -0.2377 -0.0252
  236DOPC  H13A32436   8.807   9.833   1.711  2.7128  1.9392 -0.7694
  236DOPC  H13B32437   8.821   9.764   1.562 -0.0081  1.7833  0.2464
  236DOPC  H13C32438   8.830   9.655   1.702 -0.1020 -0.5883 -1.0660
  236DOPC   C1432439   9.083   9.696   1.573  0.9683 -0.6178  0.5640
  236DOPC  H14A32440   9.184   9.735   1.574  1.4074 -1.7040  0.6881
  236DOPC  H14B32441   9.090   9.592   1.600  1.6455 -0.9115 -0.6558
  236DOPC  H14C32442   9.033   9.698   1.477 -0.4015  0.2426  1.2532
  236DOPC   C1532443   9.030   9.924   1.638  0.1770 -0.4657  0.2643
  236DOPC  H15A32444   8.986   9.945   1.542 -1.4589  0.0796  1.0812
  236DOPC  H15B32445   9.131   9.962   1.636  0.5647 -1.4591  0.5968
  236DOPC  H15C32446   8.974   9.986   1.707 -2.1616  0.1381 -1.9901
  236DOPC   C1132447   9.010   9.854   1.935 -0.0085 -0.0992  0.2120
  236DOPC  H11A32448   9.053   9.825   2.033 -0.1816  1.8182  0.8906
  236DOPC  H11B32449   9.059   9.952   1.916 -1.3019  0.4853 -0.2283
  236DOPC     P32450   8.783   9.820   2.061 -0.4894  0.5253 -0.3014
  236DOPC   O1332451   8.773   9.671   2.056 -0.3263 -0.0789  0.8440
  236DOPC   O1432452   8.659   9.895   2.070 -0.8650 -0.3761 -0.7122
  236DOPC   O1232453   8.868   9.867   1.937 -0.1191  0.4272  0.0007
  236DOPC   O1132454   8.880   9.872   2.182  0.3514  0.2745  0.8231
  236DOPC    C132455   8.870   9.997   2.254 -1.0517  0.5010  0.3289
  236DOPC    HA32456   8.823  10.079   2.197 -1.9069 -1.9542 -2.8329
  236DOPC    HB32457   8.973  10.027   2.283 -1.6810  0.5136  2.7932
  236DOPC    C232458   8.790   9.989   2.390 -0.0751 -0.1555 -0.4414
  236DOPC    HS32459   8.787  10.085   2.446 -2.8866 -0.6392  0.3889
  236DOPC   O2132460   8.841   9.882   2.475 -0.1145 -0.0591  0.1358
  236DOPC   C2132461   8.959   9.904   2.525 -0.0603 -0.3468 -0.2601
  236DOPC   O2232462   9.024  10.008   2.516  0.2054 -0.6902 -0.0493
  236DOPC   C2232463   9.012   9.780   2.603  0.5817  0.0847 -0.3410
  236DOPC   H2R32464   9.068   9.711   2.536  0.9854 -1.4668  1.5225
  236DOPC   H2S32465   8.924   9.732   2.651 -0.1561  1.1708 -0.5522
  236DOPC    C332466   8.644   9.956   2.357 -0.0471 -0.3164 -0.5055
  236DOPC    HX32467   8.650   9.847   2.342  1.5292 -0.4682  0.8721
  236DOPC    HY32468   8.599  10.019   2.277 -0.6233 -0.2473 -0.1327
  236DOPC   O3132469   8.570   9.988   2.475  0.0418  0.1767 -0.0189
  236DOPC   C3132470   8.452   9.931   2.502 -0.1934  0.4709  0.6378
  236DOPC   O3232471   8.394   9.859   2.423 -0.6062 -0.2104 -0.3442
  236DOPC   C3232472   8.408   9.975   2.642  0.1845 -0.2248  0.9424
  236DOPC   H2X32473   8.483   9.929   2.710  1.2960 -0.1579 -0.1873
  236DOPC   H2Y32474   8.416  10.086   2.639 -1.5719 -0.0849  0.3812
  236DOPC   C2332475   9.126   9.819   2.708 -0.6303  0.4388 -0.3949
  236DOPC   H3R32476   9.195   9.891   2.661 -1.3907  1.0134 -0.6597
  236DOPC   H3S32477   9.173   9.722   2.735 -0.6511  0.6093  0.2643
  236DOPC   C2432478   9.081   9.886   2.832 -0.1338 -0.1052 -0.3965
  236DOPC   H4R32479   9.012   9.970   2.809  0.7179 -0.1119 -3.4168
  236DOPC   H4S32480   9.171   9.925   2.884  1.6279 -2.9404 -1.0816
  236DOPC   C2532481   9.020   9.794   2.940 -0.6852  0.0721 -0.0463
  236DOPC   H5R32482   9.084   9.709   2.972 -1.6448 -0.8590 -0.5269
  236DOPC   H5S32483   8.925   9.763   2.891 -0.8035  0.7590 -0.2551
  236DOPC   C2632484   8.970   9.870   3.060  0.1893 -0.0303 -0.5381
  236DOPC   H6R32485   8.899   9.950   3.028  0.8142  0.4042 -0.8552
  236DOPC   H6S32486   9.061   9.916   3.102  0.6312 -0.9583 -0.4634
  236DOPC   C2732487   8.917   9.794   3.184  0.1229 -0.0145  0.3836
  236DOPC   H7R32488   8.992   9.730   3.236  0.2072  1.6351  2.4527
  236DOPC   H7S32489   8.829   9.729   3.163  1.3362 -1.3546 -0.6820
  236DOPC   C2832490   8.877   9.890   3.302  0.2080  0.5013  0.0547
  236DOPC   H8R32491   8.801   9.832   3.359 -0.6609  0.3558 -1.1981
  236DOPC   H8S32492   8.831   9.982   3.257  1.3671  0.7119 -0.7498
  236DOPC   C2932493   8.978   9.936   3.406  0.7320 -0.1378 -0.3419
  236DOPC   H9R32494   9.075   9.952   3.358 -0.1660  0.6316 -1.9827
  236DOPC  C21032495   8.965   9.940   3.541 -0.4322 -0.0069  0.8545
  236DOPC  H10R32496   9.048   9.982   3.600  1.4552  3.0225 -3.4815
  236DOPC  C21132497   8.836   9.938   3.621 -0.7674  0.1425 -0.4370
  236DOPC  H11R32498   8.749   9.921   3.555 -0.7230 -0.6582 -0.3000
  236DOPC  H11S32499   8.823  10.030   3.682 -0.5025  0.9601 -1.5883
  236DOPC  C21232500   8.835   9.827   3.722  0.3020  0.2304  0.1230
  236DOPC  H12R32501   8.758   9.852   3.799 -2.1958  0.2069 -2.1912
  236DOPC  H12S32502   8.932   9.815   3.774  0.5589  1.0107 -0.1607
  236DOPC  C21332503   8.792   9.690   3.656 -0.0709  0.0549 -0.0347
  236DOPC  H13R32504   8.859   9.665   3.571  0.9008 -1.8157  1.2264
  236DOPC  H13S32505   8.690   9.704   3.613 -0.5123 -0.8390  0.6789
  236DOPC  C21432506   8.786   9.574   3.758  0.1003  0.6578 -0.1767
  236DOPC  H14R32507   8.737   9.480   3.726 -1.4369  0.6469  2.0044
  236DOPC  H14S32508   8.732   9.609   3.848  2.5412 -0.6476  1.9392
  236DOPC  C21532509   8.926   9.525   3.794  0.4681 -0.6167 -0.5349
  236DOPC  H15R32510   8.973   9.602   3.860 -0.3900 -1.8599  1.6367
  236DOPC  H15S32511   8.981   9.510   3.699 -1.5211  0.9230 -2.0221
  236DOPC  C21632512   8.924   9.384   3.860  0.6794  0.7488 -0.4420
  236DOPC  H16R32513   8.865   9.314   3.798 -0.0484  2.3473 -1.6077
  236DOPC  H16S32514   8.869   9.394   3.956 -0.9250  1.6959 -1.4349
  236DOPC  C21732515   9.067   9.340   3.882 -0.2611  0.1621  0.6340
  236DOPC  H17R32516   9.131   9.430   3.895 -0.7405  0.3273  1.9327
  236DOPC  H17S32517   9.103   9.281   3.794  2.0224 -0.6061  2.0032
  236DOPC  C21832518   9.081   9.248   4.001  0.5213  0.3487  0.3484
  236DOPC  H18R32519   9.038   9.300   4.089 -0.3168 -0.9142  0.7286
  236DOPC  H18S32520   9.183   9.208   4.017  0.5231 -0.3991 -1.2832
  236DOPC  H18T32521   9.020   9.157   3.977  0.6183 -0.0520  1.5727
  236DOPC   C3332522   8.263   9.936   2.679  0.1250 -0.4040 -0.0138
  236DOPC   H3X32523   8.242   9.830   2.653  0.0250 -0.8931  1.9186
  236DOPC   H3Y32524   8.193   9.999   2.621  0.0582  0.3343  0.8472
  236DOPC   C3432525   8.238   9.953   2.832 -0.4059 -0.1897 -0.3722
  236DOPC   H4X32526   8.128   9.946   2.844 -0.3448  0.5214  0.8021
  236DOPC   H4Y32527   8.253  10.057   2.870  1.4856 -0.7480  0.5336
  236DOPC   C3532528   8.327   9.864   2.926  0.1148  0.3928 -0.5439
  236DOPC   H5X32529   8.422   9.916   2.951  0.7019 -1.1920  0.6616
  236DOPC   H5Y32530   8.353   9.771   2.871  1.5235 -0.2313  1.0867
  236DOPC   C3632531   8.266   9.829   3.058  0.3084  0.3772  0.5524
  236DOPC   H6X32532   8.217   9.921   3.097 -1.0581 -0.6256  1.2918
  236DOPC   H6Y32533   8.191   9.748   3.045  0.3575  0.6774 -2.0920
  236DOPC   C3732534   8.374   9.787   3.157  0.0784 -0.1382 -0.0832
  236DOPC   H7X32535   8.405   9.683   3.131  0.9248  0.2704 -0.8073
  236DOPC   H7Y32536   8.464   9.853   3.161  0.0594 -0.1564  0.7951
  236DOPC   C3832537   8.330   9.770   3.301 -0.2476 -0.4922 -0.2606
  236DOPC   H8X32538   8.407   9.709   3.352 -0.9324  0.1762  1.6763
  236DOPC   H8Y32539   8.233   9.715   3.305 -0.8116  0.4109 -1.0591
  236DOPC   C3932540   8.321   9.901   3.377  0.3704  1.0953 -0.2432
  236DOPC   H9X32541   8.278   9.989   3.325  1.0801  1.1124 -0.8129
  236DOPC  C31032542   8.367   9.936   3.497 -0.6233  0.1646  0.6811
  236DOPC  H10X32543   8.349  10.036   3.540 -1.9115 -0.1916  1.0437
  236DOPC  C31132544   8.420   9.834   3.599 -0.8191  0.3913  0.5316
  236DOPC  H11X32545   8.523   9.873   3.610 -0.1974 -0.0140 -2.9212
  236DOPC  H11Y32546   8.414   9.725   3.577  1.2008  0.4017 -0.2512
  236DOPC  C31232547   8.352   9.843   3.734  1.0245 -0.5538  0.2577
  236DOPC  H12X32548   8.364   9.948   3.769 -1.5793 -0.7630  1.9841
  236DOPC  H12Y32549   8.396   9.784   3.816  0.2301 -0.7946  0.5102
  236DOPC  C31332550   8.203   9.797   3.732  0.2417 -0.0000 -0.2606
  236DOPC  H13X32551   8.159   9.851   3.645  3.5457 -0.4572 -2.4222
  236DOPC  H13Y32552   8.182   9.689   3.714 -1.0803 -0.2397  2.3504
  236DOPC  C31432553   8.135   9.827   3.867  0.0555 -0.0488  0.1465
  236DOPC  H14X32554   8.185   9.772   3.949  1.3815  0.1579 -0.4935
  236DOPC  H14Y32555   8.153   9.935   3.889 -1.1746  0.0401  0.8596
  236DOPC  C31532556   7.983   9.796   3.867 -0.3347 -0.3289  0.2529
  236DOPC  H15X32557   7.976   9.686   3.858 -0.4800 -0.1542 -3.8829
  236DOPC  H15Y32558   7.936   9.844   3.779 -2.1404 -1.9243  0.2828
  236DOPC  C31632559   7.903   9.854   3.984 -0.3005 -0.1676  0.3560
  236DOPC  H16X32560   7.945   9.826   4.083 -1.5349 -0.5292  0.7928
  236DOPC  H16Y32561   7.906   9.965   3.994 -0.9081 -0.1709  0.6221
  236DOPC  C31732562   7.763   9.792   3.982 -0.3778 -0.1211 -0.0549
  236DOPC  H17X32563   7.714   9.857   3.908  0.2427 -1.5501 -1.7898
  236DOPC  H17Y32564   7.754   9.687   3.948 -2.2859 -0.7495  2.1613
  236DOPC  C31832565   7.685   9.810   4.115 -0.1442 -0.1121  0.1695
  236DOPC  H18X32566   7.703   9.907   4.167  1.2281 -0.9554  1.3400
  236DOPC  H18Y32567   7.579   9.791   4.089  0.0708  1.0725 -1.7709
  236DOPC  H18Z32568   7.727   9.732   4.181 -0.4204 -2.3904 -2.2024
  237DOPC     N32569  10.913   8.689   1.679 -0.3440 -0.3578 -0.0066
  237DOPC   C1232570  10.931   8.787   1.791 -0.6456 -0.9517 -0.4840
  237DOPC  H12A32571  10.945   8.883   1.744 -2.2006 -0.4546 -0.0126
  237DOPC  H12B32572  11.020   8.765   1.847 -0.9765 -1.9503 -0.3271
  237DOPC   C1332573  10.795   8.725   1.593 -0.9830 -0.4730  0.5240
  237DOPC  H13A32574  10.808   8.690   1.492  0.3778 -1.2465  0.9339
  237DOPC  H13B32575  10.704   8.683   1.630 -1.2316 -0.5986 -0.2089
  237DOPC  H13C32576  10.777   8.831   1.585 -2.6152 -0.8336 -1.4570
  237DOPC   C1432577  10.896   8.551   1.726 -0.2748  0.5661 -0.1521
  237DOPC  H14A32578  10.955   8.524   1.812  0.4633 -0.9485 -1.0986
  237DOPC  H14B32579  10.789   8.541   1.738 -0.4519  1.9183 -0.4573
  237DOPC  H14C32580  10.921   8.477   1.651  2.1196 -0.5757  1.6347
  237DOPC   C1532581  11.034   8.690   1.592  0.2414  0.4867 -0.2064
  237DOPC  H15A32582  11.117   8.676   1.660 -1.3045 -0.6086  1.5716
  237DOPC  H15B32583  11.049   8.785   1.543  2.1417 -0.8816 -2.5137
  237DOPC  H15C32584  11.034   8.612   1.517  0.9165  1.2861 -1.0713
  237DOPC   C1132585  10.816   8.797   1.891  1.0139 -0.1157  0.6283
  237DOPC  H11A32586  10.783   8.699   1.932 -4.2479  1.8960  2.0600
  237DOPC  H11B32587  10.867   8.848   1.975 -0.3717 -0.8784  1.9843
  237DOPC     P32588  10.715   9.021   1.801 -0.0578  0.1230 -0.3431
  237DOPC   O1332589  10.582   9.070   1.772  0.3907  0.0443 -0.2843
  237DOPC   O1432590  10.824   9.042   1.701  0.4812  0.1424  0.1089
  237DOPC   O1232591  10.700   8.867   1.840 -0.2688  0.0213  0.6415
  237DOPC   O1132592  10.766   9.088   1.938 -0.1422 -0.4897 -0.7313
  237DOPC    C132593  10.662   9.083   2.041 -0.1427 -0.1140 -0.1508
  237DOPC    HA32594  10.621   8.979   2.047  2.3641 -1.2543 -1.1262
  237DOPC    HB32595  10.579   9.153   2.022 -2.2584 -1.8939  1.9075
  237DOPC    C232596  10.725   9.126   2.176 -0.4120  0.3542 -0.1749
  237DOPC    HS32597  10.750   9.234   2.174  0.7229  0.1169  0.3097
  237DOPC   O2132598  10.842   9.040   2.205 -0.4160  0.0790  0.0555
  237DOPC   C2132599  10.957   9.105   2.193  0.5297 -0.1687  0.9340
  237DOPC   O2232600  10.966   9.225   2.183  0.2180  0.2140  0.0265
  237DOPC   C2232601  11.077   9.016   2.199 -0.1465  0.0562 -0.1585
  237DOPC   H2R32602  11.167   9.066   2.241  1.0918 -0.7992 -1.6895
  237DOPC   H2S32603  11.121   8.989   2.101  1.4911  1.2985  0.1906
  237DOPC    C332604  10.617   9.108   2.289 -0.5209 -0.0619  0.0197
  237DOPC    HX32605  10.615   8.999   2.311  1.7492  0.1309  1.5894
  237DOPC    HY32606  10.523   9.140   2.239 -0.1762 -1.5651 -1.7073
  237DOPC   O3132607  10.642   9.171   2.418  0.0296 -0.6730 -0.3724
  237DOPC   C3132608  10.631   9.300   2.420  0.7174  0.0756  0.2323
  237DOPC   O3232609  10.594   9.371   2.330  0.0911  0.2897  0.3078
  237DOPC   C3232610  10.679   9.354   2.555  0.3325 -0.0801  0.0249
  237DOPC   H2X32611  10.592   9.416   2.586  0.1051  0.4858 -1.6717
  237DOPC   H2Y32612  10.704   9.268   2.621  2.9650 -0.1356 -0.9182
  237DOPC   C2332613  11.050   8.883   2.282  0.6882 -0.0471 -0.4218
  237DOPC   H3R32614  11.129   8.806   2.269  0.7865 -0.1003  0.4226
  237DOPC   H3S32615  10.956   8.833   2.253  0.7611 -1.3484  1.3970
  237DOPC   C2432616  11.051   8.905   2.438 -0.2338  0.4321  1.0630
  237DOPC   H4R32617  11.138   8.960   2.478  1.0717 -1.0368  0.3559
  237DOPC   H4S32618  11.055   8.805   2.487 -1.0484  0.0087  0.3035
  237DOPC   C2532619  10.918   8.973   2.494  0.2729  0.2415  0.1941
  237DOPC   H5R32620  10.828   8.932   2.443  1.5466  0.3481 -2.3102
  237DOPC   H5S32621  10.911   9.083   2.476  0.3158 -0.1600 -2.8909
  237DOPC   C2632622  10.918   8.949   2.651 -0.5733  0.0715  0.7841
  237DOPC   H6R32623  11.026   8.951   2.677  0.2051  2.5853 -2.0592
  237DOPC   H6S32624  10.871   8.851   2.673 -0.3856 -1.0882 -3.1228
  237DOPC   C2732625  10.841   9.059   2.722 -0.3986  0.2845 -0.2470
  237DOPC   H7R32626  10.734   9.051   2.695 -0.1494 -0.9949 -0.9405
  237DOPC   H7S32627  10.875   9.165   2.709  0.2261  0.5340  2.7464
  237DOPC   C2832628  10.849   9.033   2.880  0.2965 -0.5097  0.3406
  237DOPC   H8R32629  10.949   9.047   2.925  1.0272  0.0198 -1.3485
  237DOPC   H8S32630  10.819   8.927   2.894 -2.0200  0.2997  2.1039
  237DOPC   C2932631  10.741   9.114   2.943  0.2026 -0.1231 -0.1812
  237DOPC   H9R32632  10.646   9.118   2.888 -0.9672 -1.3858  1.5946
  237DOPC  C21032633  10.747   9.169   3.067 -0.9856 -0.1641 -0.0881
  237DOPC  H10R32634  10.659   9.220   3.108 -2.2609 -2.5364  0.2637
  237DOPC  C21132635  10.864   9.148   3.161  0.0563 -0.0895 -0.5340
  237DOPC  H11R32636  10.905   9.250   3.177 -0.4250  0.0331 -0.0683
  237DOPC  H11S32637  10.945   9.083   3.121 -0.2000 -0.6353 -0.1765
  237DOPC  C21232638  10.803   9.097   3.292 -0.2189  0.5956  0.2838
  237DOPC  H12R32639  10.775   8.991   3.278  1.7413  0.0319  0.3515
  237DOPC  H12S32640  10.714   9.153   3.329 -0.2693  0.4763  0.3437
  237DOPC  C21332641  10.896   9.097   3.416 -0.5908 -0.0580  0.1824
  237DOPC  H13R32642  10.941   9.197   3.435 -0.3638  0.1582 -1.3398
  237DOPC  H13S32643  10.977   9.027   3.385  0.6946  1.5875 -0.3065
  237DOPC  C21432644  10.822   9.055   3.543  0.0090 -0.5805 -0.6232
  237DOPC  H14R32645  10.749   8.974   3.522  0.2599 -1.3113  1.1746
  237DOPC  H14S32646  10.771   9.147   3.581  0.5917 -1.5181  2.7065
  237DOPC  C21532647  10.915   8.998   3.656 -0.2620  0.1440  0.4708
  237DOPC  H15R32648  10.976   9.084   3.692 -0.4434  0.9422 -1.0143
  237DOPC  H15S32649  10.981   8.923   3.606  1.4576  1.7314  0.2126
  237DOPC  C21632650  10.849   8.930   3.776 -0.1592  0.4923 -0.0281
  237DOPC  H16R32651  10.919   8.901   3.857 -2.6276 -0.8779  1.7668
  237DOPC  H16S32652  10.792   8.836   3.761  3.4292 -1.9965  0.6520
  237DOPC  C21732653  10.766   9.036   3.852  0.0546  0.0561  0.1018
  237DOPC  H17R32654  10.710   9.089   3.771  3.5273  1.3680 -1.6460
  237DOPC  H17S32655  10.829   9.115   3.899  0.8754 -0.8114  0.4780
  237DOPC  C21832656  10.664   8.984   3.963 -0.2569  0.8050 -0.6315
  237DOPC  H18R32657  10.618   8.892   3.920  1.1845  0.4309 -1.4490
  237DOPC  H18S32658  10.578   9.050   3.984  0.0862  0.1878  3.5294
  237DOPC  H18T32659  10.716   8.960   4.058  0.6286  1.4779 -0.9254
  237DOPC   C3332660  10.808   9.444   2.537 -0.3731  0.4894  0.0195
  237DOPC   H3X32661  10.793   9.495   2.440 -1.1200 -0.2942 -0.2943
  237DOPC   H3Y32662  10.898   9.378   2.534 -1.1463 -0.5596 -0.7966
  237DOPC   C3432663  10.836   9.553   2.649 -0.4380  0.3580  0.0969
  237DOPC   H4X32664  10.750   9.619   2.670 -1.3479 -2.0503  5.9672
  237DOPC   H4Y32665  10.914   9.618   2.605 -1.8892  2.4328  0.4627
  237DOPC   C3532666  10.887   9.486   2.780  0.0644  0.1564  0.1833
  237DOPC   H5X32667  10.985   9.438   2.758  0.7944  0.8256  1.7802
  237DOPC   H5Y32668  10.803   9.421   2.813 -0.4878  1.3308  1.1844
  237DOPC   C3632669  10.908   9.593   2.892  0.1810  0.0460 -0.1047
  237DOPC   H6X32670  11.008   9.588   2.941 -0.4361  0.4132  1.2348
  237DOPC   H6Y32671  10.909   9.697   2.852 -0.8955  0.0012 -0.2692
  237DOPC   C3732672  10.800   9.588   3.002 -0.1522 -0.1872 -0.3882
  237DOPC   H7X32673  10.700   9.571   2.956  0.7060 -0.4727 -2.2446
  237DOPC   H7Y32674  10.822   9.497   3.062  1.2905  0.9536  0.9094
  237DOPC   C3832675  10.797   9.703   3.104 -0.1789  0.5870 -0.0124
  237DOPC   H8X32676  10.886   9.684   3.167 -0.1976  2.3808  0.6229
  237DOPC   H8Y32677  10.704   9.693   3.165  1.1505  3.3732  2.7688
  237DOPC   C3932678  10.799   9.838   3.043 -0.8929  0.5667  0.0604
  237DOPC   H9X32679  10.720   9.848   2.967 -0.1469  3.0382 -0.4936
  237DOPC  C31032680  10.884   9.935   3.075 -0.0757  0.3935  0.5695
  237DOPC  H10X32681  10.878  10.038   3.038 -1.0881  0.4067  0.7361
  237DOPC  C31132682  10.993   9.937   3.170  0.2158  0.3375 -0.0483
  237DOPC  H11X32683  11.082   9.950   3.105 -1.0069 -0.5212 -2.0045
  237DOPC  H11Y32684  11.002   9.845   3.232 -1.1572  0.0088 -0.3052
  237DOPC  C31232685  10.993  10.043   3.276 -0.3802  0.1827  0.6318
  237DOPC  H12X32686  10.980  10.142   3.227  0.7594  0.8620  1.6453
  237DOPC  H12Y32687  11.094  10.058   3.320 -0.0896  2.6469 -0.7231
  237DOPC  C31332688  10.881  10.034   3.375 -0.2583  0.0466  0.1530
  237DOPC  H13X32689  10.843  10.134   3.403  0.7016  0.3510  0.3973
  237DOPC  H13Y32690  10.792   9.991   3.324  0.4613  0.1481 -1.2204
  237DOPC  C31432691  10.913   9.946   3.496 -0.3666 -0.5976  0.2510
  237DOPC  H14X32692  10.954   9.849   3.460  0.4538 -0.2522  0.2248
  237DOPC  H14Y32693  10.989   9.991   3.563 -1.2946  1.3395  0.0789
  237DOPC  C31532694  10.792   9.915   3.584  0.0180  0.0745 -0.3222
  237DOPC  H15X32695  10.818   9.843   3.665 -2.2985 -1.5198 -0.8824
  237DOPC  H15Y32696  10.718   9.861   3.522  0.0761 -1.3665  0.7995
  237DOPC  C31632697  10.735  10.043   3.654  0.0124  0.0264  0.1926
  237DOPC  H16X32698  10.798  10.073   3.740  1.9770  1.2829 -1.5736
  237DOPC  H16Y32699  10.712  10.124   3.581 -0.1062  1.8797  2.2004
  237DOPC  C31732700  10.611  10.001   3.725  0.3717  0.4076  0.6755
  237DOPC  H17X32701  10.533   9.972   3.652  0.7386 -0.9506  0.7958
  237DOPC  H17Y32702  10.622   9.911   3.789 -0.5145 -1.1004 -1.1944
  237DOPC  C31832703  10.543  10.118   3.809 -0.8256 -0.1211  0.0741
  237DOPC  H18X32704  10.614  10.148   3.888 -1.2802 -0.9281  0.8145
  237DOPC  H18Y32705  10.522  10.207   3.745  2.0188  1.2910  0.9514
  237DOPC  H18Z32706  10.452  10.087   3.865 -0.9585 -0.1681 -0.1664
  238DOPC     N32707   8.958   1.861   2.287 -0.3639  0.5168 -0.1517
  238DOPC   C1232708   8.806   1.850   2.296  0.6319 -0.6530 -0.3936
  238DOPC  H12A32709   8.757   1.945   2.288 -0.9854 -1.4161  0.1356
  238DOPC  H12B32710   8.772   1.822   2.395 -0.5125 -0.8288 -0.8271
  238DOPC   C1332711   8.995   1.970   2.385  0.5332 -0.2698 -0.2711
  238DOPC  H13A32712   8.964   2.062   2.337 -1.7397 -0.4204  0.8097
  238DOPC  H13B32713   8.953   1.945   2.481 -0.3306 -2.4899 -1.1768
  238DOPC  H13C32714   9.103   1.971   2.389  0.5414  1.4627 -0.0589
  238DOPC   C1432715   8.994   1.897   2.145  0.2262  0.6687 -0.5714
  238DOPC  H14A32716   9.098   1.925   2.135  0.7550 -0.9159  0.2578
  238DOPC  H14B32717   8.973   1.821   2.071  0.9517  1.3512 -1.5041
  238DOPC  H14C32718   8.928   1.977   2.112 -1.6442  0.1112  1.5628
  238DOPC   C1532719   9.026   1.739   2.327 -0.3606  1.0270  1.4014
  238DOPC  H15A32720   9.002   1.657   2.261  0.9580 -1.1683  3.4892
  238DOPC  H15B32721   8.982   1.708   2.420 -1.9296 -0.7551  0.1543
  238DOPC  H15C32722   9.133   1.748   2.330 -0.2148 -0.6097  2.6977
  238DOPC   C1132723   8.743   1.742   2.206  0.3218 -0.2897 -0.2456
  238DOPC  H11A32724   8.634   1.747   2.226  0.3442 -0.5347 -0.0434
  238DOPC  H11B32725   8.753   1.784   2.104  2.9224 -0.2814 -0.0693
  238DOPC     P32726   8.766   1.532   2.356  0.0516 -0.0888  0.1364
  238DOPC   O1332727   8.892   1.457   2.395 -0.1213  0.3274  0.3344
  238DOPC   O1432728   8.642   1.449   2.331  0.3036 -0.3870  0.7515
  238DOPC   O1232729   8.798   1.614   2.222  0.2429  0.2353  0.2700
  238DOPC   O1132730   8.729   1.642   2.466 -0.4854  0.0041  0.0359
  238DOPC    C132731   8.604   1.657   2.539  0.0457 -0.1339 -0.0018
  238DOPC    HA32732   8.566   1.556   2.568  0.4524 -0.2375  0.1819
  238DOPC    HB32733   8.534   1.703   2.467  0.8076  0.1111 -0.5968
  238DOPC    C232734   8.612   1.758   2.658 -1.0191  0.2737 -0.1488
  238DOPC    HS32735   8.655   1.853   2.618  1.8228  0.8026  3.5877
  238DOPC   O2132736   8.704   1.702   2.754 -0.0041 -0.6334 -0.1613
  238DOPC   C2132737   8.838   1.711   2.734  0.0465  0.5386 -0.4624
  238DOPC   O2232738   8.886   1.779   2.643  0.4619  0.2622 -0.0157
  238DOPC   C2232739   8.919   1.649   2.847  0.7123  0.0529 -0.8564
  238DOPC   H2R32740   9.024   1.659   2.811  0.8476  2.1588 -0.0414
  238DOPC   H2S32741   8.896   1.541   2.859 -1.7931  0.6556  0.3483
  238DOPC    C332742   8.484   1.788   2.730  0.2493 -0.1683  0.4174
  238DOPC    HX32743   8.494   1.894   2.762  2.9909  0.0202 -0.7465
  238DOPC    HY32744   8.476   1.722   2.819  3.4832  0.3708  1.2474
  238DOPC   O3132745   8.370   1.775   2.646 -0.4326  0.3700  0.3318
  238DOPC   C3132746   8.352   1.869   2.550  0.3189  0.3779  0.4695
  238DOPC   O3232747   8.417   1.971   2.537  0.3121  0.8064  0.1976
  238DOPC   C3232748   8.227   1.822   2.477 -0.2357 -0.3584  0.3147
  238DOPC   H2X32749   8.252   1.787   2.375  1.6066 -1.1845  1.0070
  238DOPC   H2Y32750   8.178   1.734   2.524  1.1409 -0.8828  0.8029
  238DOPC   C2332751   8.896   1.721   2.981  0.0865  0.3381 -0.0849
  238DOPC   H3R32752   8.791   1.706   3.016  0.0989  0.7207  0.1253
  238DOPC   H3S32753   8.915   1.831   2.972 -0.5329  0.4453 -0.1348
  238DOPC   C2432754   8.969   1.664   3.100  0.0607  0.4604  0.2490
  238DOPC   H4R32755   9.075   1.697   3.101  0.7405 -1.5273 -0.8149
  238DOPC   H4S32756   8.983   1.555   3.090  0.9694  0.7504 -2.3288
  238DOPC   C2532757   8.899   1.682   3.237  0.6755 -0.0382 -0.2709
  238DOPC   H5R32758   8.795   1.642   3.234  0.7681 -0.3553  0.6974
  238DOPC   H5S32759   8.910   1.791   3.257  1.1125 -0.4822  2.1459
  238DOPC   C2632760   8.976   1.619   3.349 -0.3444  0.3311 -0.5755
  238DOPC   H6R32761   9.076   1.666   3.357 -0.0979 -0.2537 -0.1964
  238DOPC   H6S32762   8.985   1.513   3.315 -3.5630 -1.0358  2.2727
  238DOPC   C2732763   8.901   1.608   3.480 -0.5025  0.4054 -0.3719
  238DOPC   H7R32764   8.808   1.550   3.462  0.5601 -2.2476  1.8310
  238DOPC   H7S32765   8.865   1.710   3.505 -1.3527  0.0708 -0.1999
  238DOPC   C2832766   8.976   1.535   3.593 -0.2262 -0.7259 -0.3210
  238DOPC   H8R32767   8.999   1.430   3.567 -3.4989 -1.3893 -0.9730
  238DOPC   H8S32768   8.904   1.533   3.677  1.9869  0.9255  1.7663
  238DOPC   C2932769   9.105   1.602   3.631  0.1989 -0.0915 -0.5916
  238DOPC   H9R32770   9.170   1.630   3.547  1.2565 -1.3935 -0.2361
  238DOPC  C21032771   9.135   1.634   3.754 -0.1712 -1.1723 -0.4474
  238DOPC  H10R32772   9.237   1.671   3.774 -0.8607  0.2339  0.6205
  238DOPC  C21132773   9.050   1.624   3.882  0.3411  0.3790  1.0030
  238DOPC  H11R32774   9.073   1.528   3.932 -0.0555  0.9256  2.2598
  238DOPC  H11S32775   8.941   1.625   3.859  0.8458  1.6336 -1.9127
  238DOPC  C21232776   9.075   1.745   3.978 -0.2676 -0.3777  0.3741
  238DOPC  H12R32777   8.995   1.757   4.053 -0.1183  0.5760  0.3920
  238DOPC  H12S32778   9.063   1.834   3.913 -1.3094  0.3041  1.4665
  238DOPC  C21332779   9.219   1.745   4.035 -0.6077  0.0030 -0.3533
  238DOPC  H13R32780   9.299   1.735   3.959  0.1173  0.9481  0.2573
  238DOPC  H13S32781   9.221   1.662   4.108 -1.2975  1.3985  1.3440
  238DOPC  C21432782   9.240   1.874   4.113 -0.3986 -0.0351 -0.8777
  238DOPC  H14R32783   9.149   1.881   4.175  0.0091 -2.4280  0.1086
  238DOPC  H14S32784   9.243   1.952   4.035 -1.4842  2.4611  1.4243
  238DOPC  C21532785   9.372   1.875   4.191 -0.4376  0.4479  0.1823
  238DOPC  H15R32786   9.384   1.777   4.242 -2.2739  0.5001  0.8018
  238DOPC  H15S32787   9.378   1.956   4.266  0.5934 -0.0625  0.6723
  238DOPC  C21632788   9.501   1.897   4.106  0.6406 -0.1151 -1.5223
  238DOPC  H16R32789   9.491   1.979   4.032 -0.0871 -0.0647 -1.3747
  238DOPC  H16S32790   9.526   1.803   4.053  1.6101 -0.7366 -0.0386
  238DOPC  C21732791   9.623   1.919   4.200  0.5013  0.1873 -0.3662
  238DOPC  H17R32792   9.641   1.827   4.260 -2.1707 -0.5823 -0.5946
  238DOPC  H17S32793   9.593   1.993   4.277 -1.3890  0.0596 -0.9145
  238DOPC  C21832794   9.754   1.949   4.131 -0.3479  0.2173 -0.4541
  238DOPC  H18R32795   9.801   1.855   4.095  0.9241  0.2358  1.0269
  238DOPC  H18S32796   9.822   1.994   4.207  1.0878  0.1233 -1.6476
  238DOPC  H18T32797   9.744   2.014   4.041 -1.7776  1.4664  0.5546
  238DOPC   C3332798   8.148   1.946   2.428  0.0963 -0.1515 -0.2331
  238DOPC   H3X32799   8.071   1.903   2.359  0.4521 -2.4378  0.7047
  238DOPC   H3Y32800   8.216   2.005   2.364  0.7668 -2.2622 -1.5961
  238DOPC   C3432801   8.087   2.013   2.551  0.0791 -0.0353 -0.3794
  238DOPC   H4X32802   8.035   2.106   2.521 -1.4989 -1.0017 -0.7214
  238DOPC   H4Y32803   8.163   2.047   2.625 -0.2914  0.9198 -0.4333
  238DOPC   C3532804   7.975   1.928   2.621  0.1376  0.4606  0.6986
  238DOPC   H5X32805   8.019   1.833   2.659  1.1214  1.0932  1.1715
  238DOPC   H5Y32806   7.900   1.903   2.543 -1.8332 -1.7629  3.0987
  238DOPC   C3632807   7.905   1.993   2.741 -0.5033 -0.4724 -0.1482
  238DOPC   H6X32808   7.974   2.018   2.825  0.2465  0.0344 -0.9010
  238DOPC   H6Y32809   7.869   2.089   2.698  1.0943  0.1564 -0.1486
  238DOPC   C3732810   7.782   1.912   2.793 -0.6227  0.7443 -0.1700
  238DOPC   H7X32811   7.716   1.883   2.708 -0.1382 -1.8674  0.2599
  238DOPC   H7Y32812   7.807   1.816   2.843  2.3464  1.5799  0.1279
  238DOPC   C3832813   7.719   1.989   2.904 -0.2034 -0.1816  0.0695
  238DOPC   H8X32814   7.682   2.091   2.879  0.0691  0.2684  1.4343
  238DOPC   H8Y32815   7.791   2.004   2.987  0.8931  0.1057 -0.9169
  238DOPC   C3932816   7.606   1.915   2.965  0.1217  0.5716 -0.0521
  238DOPC   H9X32817   7.519   1.912   2.898  0.3086  1.1444 -0.3282
  238DOPC  C31032818   7.587   1.854   3.084 -0.0953  0.1779  0.4784
  238DOPC  H10X32819   7.491   1.800   3.082 -0.4824  0.8353 -1.6107
  238DOPC  C31132820   7.671   1.857   3.207 -0.2873  0.4925 -0.4148
  238DOPC  H11X32821   7.775   1.846   3.168 -0.8544  0.6822 -2.0903
  238DOPC  H11Y32822   7.653   1.765   3.267 -0.0079  1.2293  0.8188
  238DOPC  C31232823   7.661   1.976   3.304  0.2711 -0.1473  0.3415
  238DOPC  H12X32824   7.557   2.000   3.332  0.8286  2.0526  0.7453
  238DOPC  H12Y32825   7.694   2.062   3.241 -0.9392  0.7325  0.8670
  238DOPC  C31332826   7.751   1.963   3.426 -0.7790 -0.2709 -0.0868
  238DOPC  H13X32827   7.746   1.865   3.479 -1.3887 -0.3176 -0.2265
  238DOPC  H13Y32828   7.858   1.975   3.398 -1.5421  1.0373 -2.6859
  238DOPC  C31432829   7.745   2.082   3.525 -0.6165 -0.0825  0.1113
  238DOPC  H14X32830   7.771   2.176   3.471  1.1599 -0.4663  0.2352
  238DOPC  H14Y32831   7.641   2.092   3.561 -0.4272 -0.5191  0.7850
  238DOPC  C31532832   7.844   2.069   3.643  0.6352  0.6737 -0.3401
  238DOPC  H15X32833   7.833   1.974   3.699  2.9189  1.0121  0.7918
  238DOPC  H15Y32834   7.816   2.147   3.717 -0.5014  1.0447 -1.1437
  238DOPC  C31632835   7.991   2.093   3.621 -0.0234  0.4902 -0.2840
  238DOPC  H16X32836   8.042   2.017   3.557 -3.2637  0.4653 -3.1203
  238DOPC  H16Y32837   8.003   2.189   3.566 -1.4502  0.9321  0.1355
  238DOPC  C31732838   8.064   2.095   3.755  0.3432  0.9187 -0.2084
  238DOPC  H17X32839   8.171   2.117   3.734  0.7941 -0.1467  0.8285
  238DOPC  H17Y32840   8.018   2.173   3.819  0.9870  0.0465  1.3859
  238DOPC  C31832841   8.081   1.957   3.826  0.1891 -0.1123  0.5066
  238DOPC  H18X32842   8.144   1.886   3.769  0.3616  1.8794 -1.9846
  238DOPC  H18Y32843   8.134   1.977   3.922 -0.0544  0.5271  0.5160
  238DOPC  H18Z32844   7.987   1.903   3.847  0.0855 -0.1873 -0.1282
  239DOPC     N32845   9.072   9.157   2.269  0.0658  0.3987  0.0207
  239DOPC   C1232846   9.157   9.280   2.242  0.2167  0.4124 -0.3504
  239DOPC  H12A32847   9.259   9.243   2.244  0.2322  0.3566 -1.4739
  239DOPC  H12B32848   9.139   9.344   2.327 -0.3567  0.9759 -0.8891
  239DOPC   C1332849   9.098   9.105   2.400 -0.1073  0.1596  0.3332
  239DOPC  H13A32850   9.049   9.009   2.404 -0.8412  0.4098 -1.4520
  239DOPC  H13B32851   9.201   9.084   2.427 -0.1801  0.0917  0.5539
  239DOPC  H13C32852   9.065   9.177   2.473 -0.4363 -1.6381  2.0144
  239DOPC   C1432853   9.103   9.053   2.166 -0.3702  0.5878 -0.5096
  239DOPC  H14A32854   9.052   8.958   2.170  2.3857 -1.1635 -2.6474
  239DOPC  H14B32855   9.086   9.091   2.067 -0.0221 -1.2617 -1.3282
  239DOPC  H14C32856   9.209   9.035   2.175 -0.6398 -0.0225  2.4456
  239DOPC   C1532857   8.927   9.183   2.272 -0.3342 -0.1059 -0.3969
  239DOPC  H15A32858   8.863   9.098   2.289  0.3142 -0.6578 -0.6565
  239DOPC  H15B32859   8.901   9.220   2.174  0.5532  1.1004 -0.2011
  239DOPC  H15C32860   8.901   9.259   2.345  1.7054  0.8893 -0.6261
  239DOPC   C1132861   9.142   9.359   2.108 -0.1879 -0.2359 -0.4819
  239DOPC  H11A32862   9.036   9.390   2.114  0.2163  1.1627 -0.0900
  239DOPC  H11B32863   9.199   9.455   2.107  0.6460 -0.7151 -0.5446
  239DOPC     P32864   9.322   9.242   1.970 -0.3827  0.0826 -0.3199
  239DOPC   O1332865   9.372   9.357   1.888 -0.5610  0.1071 -0.4641
  239DOPC   O1432866   9.332   9.106   1.910 -0.0264 -0.3687  0.3236
  239DOPC   O1232867   9.171   9.277   2.000 -0.0898  0.4203 -0.7311
  239DOPC   O1132868   9.396   9.250   2.109 -0.0945  0.1816  0.2713
  239DOPC    C132869   9.491   9.354   2.145  0.5457 -0.5877 -0.0113
  239DOPC    HA32870   9.439   9.451   2.153  3.0271  0.7942  0.3961
  239DOPC    HB32871   9.572   9.374   2.071 -0.9548  5.2816 -0.5228
  239DOPC    C232872   9.556   9.325   2.282 -0.1717  0.4547  0.3195
  239DOPC    HS32873   9.613   9.414   2.315 -1.7128  1.8361 -0.5921
  239DOPC   O2132874   9.632   9.203   2.272  0.0909  0.2695 -0.1091
  239DOPC   C2132875   9.757   9.230   2.244  0.1480  0.0202 -0.4931
  239DOPC   O2232876   9.810   9.335   2.219  0.1622  0.1418  0.4086
  239DOPC   C2232877   9.834   9.095   2.270 -0.0168 -0.1110  0.6682
  239DOPC   H2R32878   9.839   9.050   2.168 -1.8708 -0.5578  0.7357
  239DOPC   H2S32879   9.775   9.030   2.337  0.5125 -2.0583 -0.6583
  239DOPC    C332880   9.460   9.299   2.397  0.3862 -0.3042 -0.2764
  239DOPC    HX32881   9.391   9.213   2.382 -0.0661 -0.5249  2.4563
  239DOPC    HY32882   9.389   9.385   2.398 -0.9336 -1.3356 -1.3936
  239DOPC   O3132883   9.538   9.277   2.516  0.1113 -0.2878 -0.0722
  239DOPC   C3132884   9.549   9.148   2.550  0.9654 -0.4917 -0.1525
  239DOPC   O3232885   9.475   9.061   2.506 -0.4816 -0.7600 -0.2332
  239DOPC   C3232886   9.655   9.130   2.660  0.1335 -1.1034  0.1176
  239DOPC   H2X32887   9.753   9.162   2.617  0.0878  1.3637  1.6413
  239DOPC   H2Y32888   9.640   9.207   2.739 -0.4540  0.8464 -1.7863
  239DOPC   C2332889   9.962   9.116   2.344  0.4319  0.8090 -0.7301
  239DOPC   H3R32890   9.971   9.208   2.405 -1.9198  1.6512 -1.5156
  239DOPC   H3S32891  10.040   9.123   2.264  0.4034 -0.9744 -0.9545
  239DOPC   C2432892  10.008   8.993   2.423 -0.1709 -0.3010 -0.0050
  239DOPC   H4R32893   9.990   8.908   2.354  1.5001 -1.0303  0.4137
  239DOPC   H4S32894   9.942   8.987   2.512  2.3912 -0.9250  1.9632
  239DOPC   C2532895  10.159   8.994   2.449  0.1290 -0.1047 -0.6742
  239DOPC   H5R32896  10.206   9.003   2.349 -1.7421 -1.7752 -1.7804
  239DOPC   H5S32897  10.193   8.896   2.489  1.6400 -0.4450 -2.6518
  239DOPC   C2632898  10.202   9.109   2.538 -0.0157  0.2972 -0.4897
  239DOPC   H6R32899  10.124   9.129   2.615 -0.4427 -3.5093  0.2467
  239DOPC   H6S32900  10.208   9.204   2.479  0.7383  0.1576 -0.6494
  239DOPC   C2732901  10.336   9.089   2.606  0.0590  0.5421 -0.7000
  239DOPC   H7R32902  10.421   9.117   2.539  2.2055 -0.3493  1.4975
  239DOPC   H7S32903  10.339   8.982   2.635  0.3071  0.8528  0.4813
  239DOPC   C2832904  10.352   9.166   2.741  0.0229 -0.9125 -0.0920
  239DOPC   H8R32905  10.455   9.146   2.779 -0.3024 -1.0628  0.7329
  239DOPC   H8S32906  10.280   9.133   2.818  0.6891 -1.4086  0.3249
  239DOPC   C2932907  10.333   9.314   2.716  0.7384  0.0305  0.1284
  239DOPC   H9R32908  10.318   9.344   2.611  0.5357 -1.1819 -0.2066
  239DOPC  C21032909  10.312   9.407   2.810 -0.5387 -0.0111  0.4914
  239DOPC  H10R32910  10.329   9.508   2.772 -0.9648 -0.7109 -1.6975
  239DOPC  C21132911  10.301   9.384   2.956 -0.0997 -0.5431 -0.4983
  239DOPC  H11R32912  10.293   9.276   2.982  0.9793 -0.6439 -0.5298
  239DOPC  H11S32913  10.209   9.437   2.987  0.5886  0.7518 -0.6374
  239DOPC  C21232914  10.433   9.430   3.036  0.2502  0.2564  0.0585
  239DOPC  H12R32915  10.438   9.539   3.053  0.4619  0.1220  0.8824
  239DOPC  H12S32916  10.525   9.404   2.980  0.5341  0.1131  0.5900
  239DOPC  C21332917  10.438   9.373   3.182 -0.4182 -0.3447  0.1638
  239DOPC  H13R32918  10.486   9.273   3.187  1.7321  0.6737  0.8178
  239DOPC  H13S32919  10.339   9.371   3.234 -0.5178  1.9198  0.1358
  239DOPC  C21432920  10.530   9.465   3.264 -0.4417 -0.2328  0.1284
  239DOPC  H14R32921  10.490   9.569   3.253  0.8559  0.1078 -1.9339
  239DOPC  H14S32922  10.632   9.482   3.225 -0.0298 -0.0770  1.2454
  239DOPC  C21532923  10.538   9.424   3.412  0.1930  0.2362 -0.2960
  239DOPC  H15R32924  10.615   9.346   3.431 -0.6706 -0.6617 -0.4164
  239DOPC  H15S32925  10.438   9.396   3.454  1.4086 -3.0075  0.7918
  239DOPC  C21632926  10.573   9.536   3.501 -0.3902  0.7352  0.6932
  239DOPC  H16R32927  10.493   9.613   3.496 -1.2113 -0.0576  1.1792
  239DOPC  H16S32928  10.670   9.580   3.470 -0.2314  0.4482  0.7779
  239DOPC  C21732929  10.592   9.492   3.640  1.0450  0.2227 -0.3364
  239DOPC  H17R32930  10.675   9.417   3.644  0.7522 -0.0528  1.8142
  239DOPC  H17S32931  10.503   9.440   3.682 -0.1136  1.8291 -0.6957
  239DOPC  C21832932  10.641   9.608   3.739  0.4364  0.0448 -0.6632
  239DOPC  H18R32933  10.680   9.567   3.835  0.5187 -1.2382 -1.2198
  239DOPC  H18S32934  10.568   9.691   3.744  1.4524  0.9326 -0.2027
  239DOPC  H18T32935  10.724   9.661   3.687  0.5809  0.6044  0.1191
  239DOPC   C3332936   9.664   8.989   2.710 -0.6635 -0.0387  0.2376
  239DOPC   H3X32937   9.693   8.920   2.628  1.9455 -1.0782  1.8789
  239DOPC   H3Y32938   9.565   8.948   2.740 -0.6989 -1.7501 -1.9858
  239DOPC   C3432939   9.777   8.955   2.807 -0.2643  0.2285 -0.1164
  239DOPC   H4X32940   9.866   9.015   2.777 -0.5419  0.5073 -0.3915
  239DOPC   H4Y32941   9.791   8.845   2.803  1.1616  0.3852  0.1588
  239DOPC   C3532942   9.743   8.999   2.952 -0.3602 -0.4321  0.4029
  239DOPC   H5X32943   9.656   8.941   2.991 -0.8107  0.4048  0.6617
  239DOPC   H5Y32944   9.722   9.108   2.952  3.6194  0.4791 -0.1980
  239DOPC   C3632945   9.856   8.993   3.053 -0.0712 -0.2956  0.4618
  239DOPC   H6X32946   9.897   8.890   3.058 -0.1258 -0.3706 -0.4929
  239DOPC   H6Y32947   9.926   9.076   3.028 -0.3450 -0.6696 -1.7769
  239DOPC   C3732948   9.804   9.011   3.199 -0.3054  0.3899  0.2848
  239DOPC   H7X32949   9.727   9.090   3.188 -1.8749 -1.1804 -0.2712
  239DOPC   H7Y32950   9.739   8.925   3.226 -2.4647  1.2897 -1.7490
  239DOPC   C3832951   9.914   9.037   3.294 -0.2451  0.2017 -0.4879
  239DOPC   H8X32952   9.996   9.095   3.247  1.5062 -2.1192 -0.5157
  239DOPC   H8Y32953   9.949   8.934   3.319 -1.1351  0.2376  1.0267
  239DOPC   C3932954   9.872   9.124   3.406  0.7940  0.7733 -0.7746
  239DOPC   H9X32955   9.864   9.232   3.389  3.5178  1.6589  2.4516
  239DOPC  C31032956   9.843   9.076   3.530 -0.0069  0.5137  0.1148
  239DOPC  H10X32957   9.806   9.141   3.611  1.7403  0.8587  0.6694
  239DOPC  C31132958   9.839   8.926   3.557  0.4756  0.8063 -0.0264
  239DOPC  H11X32959   9.930   8.868   3.530  0.0204 -1.1443  2.2943
  239DOPC  H11Y32960   9.758   8.881   3.495  0.2651  3.3026 -1.6956
  239DOPC  C31232961   9.815   8.897   3.707  0.1199 -0.3284 -0.4183
  239DOPC  H12X32962   9.787   8.790   3.721 -3.3490  0.2965 -1.6513
  239DOPC  H12Y32963   9.726   8.950   3.745  1.0762  0.6626  0.4877
  239DOPC  C31332964   9.941   8.923   3.801 -0.2132 -0.1554 -0.9420
  239DOPC  H13X32965   9.985   9.024   3.784 -1.8590  0.3608 -2.4538
  239DOPC  H13Y32966   9.900   8.924   3.904  1.6489 -0.2286 -0.1517
  239DOPC  C31432967  10.050   8.811   3.807 -0.0559  0.4175 -0.1708
  239DOPC  H14X32968   9.994   8.718   3.835 -0.6533  0.7265 -0.3139
  239DOPC  H14Y32969  10.096   8.801   3.707  2.8965  0.6196  1.0626
  239DOPC  C31532970  10.148   8.843   3.925 -0.1629  1.1213  0.5825
  239DOPC  H15X32971  10.095   8.870   4.019  0.7515  0.7670  1.2179
  239DOPC  H15Y32972  10.208   8.931   3.892 -0.2819  0.8167 -0.4790
  239DOPC  C31632973  10.243   8.718   3.948  0.7764 -0.2176 -0.2545
  239DOPC  H16X32974  10.228   8.649   3.863  1.0609  1.4414 -1.7267
  239DOPC  H16Y32975  10.344   8.764   3.948  0.3473  0.8611  1.8143
  239DOPC  C31732976  10.195   8.630   4.066 -0.7267  0.4782 -0.5710
  239DOPC  H17X32977  10.093   8.602   4.031 -0.9778  0.0580  0.4694
  239DOPC  H17Y32978  10.261   8.541   4.068 -0.3403  0.7658  1.6942
  239DOPC  C31832979  10.192   8.689   4.210  0.2921 -0.0615 -0.0942
  239DOPC  H18X32980  10.296   8.726   4.223  0.7005 -0.2915 -2.2964
  239DOPC  H18Y32981  10.117   8.770   4.204  1.4637  1.0249 -0.5730
  239DOPC  H18Z32982  10.172   8.608   4.284 -0.7421  0.0605 -0.2380
  240DOPC     N32983  12.204   5.630   1.840  0.4971 -0.1319  0.4127
  240DOPC   C1232984  12.225   5.613   1.993  0.1161  0.1131  0.2166
  240DOPC  H12A32985  12.136   5.646   2.044 -1.0469  0.2358 -1.7941
  240DOPC  H12B32986  12.303   5.679   2.028  0.6843  1.7356 -3.5655
  240DOPC   C1332987  12.220   5.776   1.797  0.1215 -0.0942 -0.1844
  240DOPC  H13A32988  12.209   5.794   1.691 -1.5848  2.8940  0.3797
  240DOPC  H13B32989  12.147   5.843   1.840  0.7096 -0.8931  2.1701
  240DOPC  H13C32990  12.319   5.808   1.825 -0.1490 -1.3963  2.5209
  240DOPC   C1432991  12.057   5.590   1.812 -0.5479  0.0910 -0.2460
  240DOPC  H14A32992  12.032   5.613   1.710 -0.4372  1.5521  0.0319
  240DOPC  H14B32993  12.055   5.485   1.837  1.3536  0.3036  1.0128
  240DOPC  H14C32994  11.984   5.640   1.875 -0.9366 -0.5812 -0.1562
  240DOPC   C1532995  12.287   5.535   1.756 -0.7141 -0.3884  0.0460
  240DOPC  H15A32996  12.393   5.558   1.764 -0.4075 -1.5924 -0.2977
  240DOPC  H15B32997  12.261   5.546   1.652 -1.6963  1.4448  0.4446
  240DOPC  H15C32998  12.272   5.433   1.788  1.1479 -0.5193  0.6701
  240DOPC   C1132999  12.254   5.466   2.036 -0.8418 -0.6767 -0.1488
  240DOPC  H11A33000  12.332   5.409   1.981 -1.5646 -0.4679 -1.4336
  240DOPC  H11B33001  12.294   5.477   2.139 -0.8231 -2.3592  0.0432
  240DOPC     P33002  12.099   5.247   2.038  0.1855  0.0374  0.2008
  240DOPC   O1333003  12.148   5.188   1.910  0.1490 -0.2908  0.4458
  240DOPC   O1433004  11.958   5.216   2.070  0.1671  0.4607  0.2080
  240DOPC   O1233005  12.129   5.402   2.036 -0.2001 -0.2246 -0.2876
  240DOPC   O1133006  12.187   5.212   2.158  0.2237  0.1166  0.0963
  240DOPC    C133007  12.289   5.118   2.161 -0.1444  0.0127 -0.1651
  240DOPC    HA33008  12.385   5.166   2.135 -0.1442  0.1583  0.0990
  240DOPC    HB33009  12.262   5.034   2.094  1.2436 -0.5377 -0.0662
  240DOPC    C233010  12.303   5.060   2.302  0.0261  0.1388  0.6495
  240DOPC    HS33011  12.355   4.962   2.289 -0.1129  0.4672 -4.5996
  240DOPC   O2133012  12.169   5.044   2.357 -0.0684  0.0910  0.0314
  240DOPC   C2133013  12.095   4.959   2.287 -0.0674 -0.1385  0.1781
  240DOPC   O2233014  12.132   4.880   2.204 -0.6918 -0.5447 -0.2286
  240DOPC   C2233015  11.951   4.979   2.322  0.4470 -0.3583 -0.3033
  240DOPC   H2R33016  11.926   5.077   2.276  0.0150  1.1561  2.8936
  240DOPC   H2S33017  11.951   4.984   2.433  1.3041 -0.0464 -0.3070
  240DOPC    C333018  12.386   5.144   2.404  0.7395 -0.3136  0.1705
  240DOPC    HX33019  12.354   5.250   2.403 -1.0401 -0.7923  1.4944
  240DOPC    HY33020  12.493   5.141   2.371  0.7187  1.0060 -0.0825
  240DOPC   O3133021  12.383   5.081   2.539 -0.8975  0.4625 -0.1856
  240DOPC   C3133022  12.289   5.140   2.617  0.0586  0.4957 -0.2303
  240DOPC   O3233023  12.221   5.236   2.583  0.2278 -0.2340 -0.9021
  240DOPC   C3233024  12.281   5.063   2.741 -0.3343 -0.6881  0.3780
  240DOPC   H2X33025  12.283   4.954   2.719 -1.4813 -0.7097  0.3335
  240DOPC   H2Y33026  12.374   5.085   2.799 -0.3741  0.1276  0.1400
  240DOPC   C2333027  11.867   4.868   2.255  0.2080 -0.1063  0.5181
  240DOPC   H3R33028  11.888   4.771   2.306 -0.3225 -0.6413 -0.2575
  240DOPC   H3S33029  11.887   4.863   2.146 -0.4059  0.1683  0.3922
  240DOPC   C2433030  11.722   4.899   2.277 -0.0149  0.0178  0.5888
  240DOPC   H4R33031  11.710   5.004   2.243  0.8812 -0.6938 -2.1528
  240DOPC   H4S33032  11.693   4.892   2.384  1.2257 -2.4184  0.8296
  240DOPC   C2533033  11.630   4.805   2.196  0.0874 -0.5184  0.0282
  240DOPC   H5R33034  11.649   4.707   2.244 -0.5395 -0.4453  0.4366
  240DOPC   H5S33035  11.656   4.806   2.088 -1.5809  2.4077 -0.4689
  240DOPC   C2633036  11.484   4.837   2.206  0.3983 -0.0985  0.1747
  240DOPC   H6R33037  11.436   4.788   2.293 -2.5220  0.4298 -1.0289
  240DOPC   H6S33038  11.427   4.801   2.118 -0.1344 -1.3987  1.0188
  240DOPC   C2733039  11.454   4.990   2.217 -0.2071  0.3223  0.3627
  240DOPC   H7R33040  11.500   5.045   2.132  0.0278 -0.4762 -0.0362
  240DOPC   H7S33041  11.517   5.034   2.297  0.5015 -0.2780  0.1459
  240DOPC   C2833042  11.302   5.008   2.235  0.1446  0.4984  0.7159
  240DOPC   H8R33043  11.275   4.954   2.328  2.1372 -1.3321  0.3253
  240DOPC   H8S33044  11.250   4.965   2.146  1.7372  1.0515 -0.5396
  240DOPC   C2933045  11.281   5.155   2.262 -0.8500 -0.0527  0.1153
  240DOPC   H9R33046  11.320   5.218   2.180  0.0160 -1.4697 -0.5967
  240DOPC  C21033047  11.231   5.217   2.370 -0.8763 -0.1351 -0.7698
  240DOPC  H10R33048  11.237   5.326   2.372 -0.8477 -0.1371  1.2195
  240DOPC  C21133049  11.167   5.157   2.494 -0.2978 -0.1275  0.0877
  240DOPC  H11R33050  11.242   5.099   2.552  0.8476  0.4690 -0.7562
  240DOPC  H11S33051  11.082   5.093   2.462  0.4265 -0.9506 -0.2706
  240DOPC  C21233052  11.110   5.268   2.580 -0.5812  0.6588  0.9258
  240DOPC  H12R33053  11.008   5.295   2.545  0.3284 -0.0867 -2.7670
  240DOPC  H12S33054  11.177   5.356   2.568  0.5904 -0.5248 -2.5398
  240DOPC  C21333055  11.123   5.224   2.726  0.0692 -0.8992  0.7318
  240DOPC  H13R33056  11.230   5.242   2.748  0.8843  0.3977 -3.4220
  240DOPC  H13S33057  11.087   5.121   2.751 -2.0618 -0.8292 -1.6718
  240DOPC  C21433058  11.044   5.308   2.827  0.3315  0.2173  0.5673
  240DOPC  H14R33059  10.937   5.290   2.806  0.2781 -0.0800  1.0791
  240DOPC  H14S33060  11.077   5.412   2.805  1.0086 -0.2184 -0.5814
  240DOPC  C21533061  11.085   5.269   2.972  0.0847  0.2376 -1.0925
  240DOPC  H15R33062  11.194   5.277   2.991  0.0286 -0.9261 -0.1222
  240DOPC  H15S33063  11.045   5.167   2.993  1.4759 -0.1779 -0.3401
  240DOPC  C21633064  11.013   5.369   3.066  0.3436 -0.2123  0.0308
  240DOPC  H16R33065  11.068   5.464   3.050  2.5819 -0.9466  2.6086
  240DOPC  H16S33066  11.038   5.329   3.167 -4.4465 -1.9963  0.7447
  240DOPC  C21733067  10.856   5.379   3.056 -0.0564 -0.3658 -0.4278
  240DOPC  H17R33068  10.821   5.281   3.017  0.9033 -1.5523  1.5285
  240DOPC  H17S33069  10.828   5.448   2.973 -0.4609 -0.9630 -0.7943
  240DOPC  C21833070  10.785   5.433   3.180  0.2246  0.1568 -0.2703
  240DOPC  H18R33071  10.806   5.542   3.189 -0.5080  0.1159  3.2041
  240DOPC  H18S33072  10.823   5.382   3.271 -0.4170 -0.1121 -0.1538
  240DOPC  H18T33073  10.675   5.418   3.181  0.0775  0.8107 -2.2280
  240DOPC   C3333074  12.158   5.085   2.835  0.0663  0.2997 -0.2906
  240DOPC   H3X33075  12.153   5.015   2.920 -1.6594  1.6336  0.7633
  240DOPC   H3Y33076  12.061   5.081   2.781  0.0986  2.1088 -0.5561
  240DOPC   C3433077  12.171   5.223   2.902 -0.3344  0.4614  0.1305
  240DOPC   H4X33078  12.168   5.303   2.824 -1.3415  0.2673 -0.0429
  240DOPC   H4Y33079  12.268   5.223   2.955 -0.8884 -2.5926  1.3105
  240DOPC   C3533080  12.064   5.266   3.000  0.1131  0.3565 -0.0391
  240DOPC   H5X33081  11.964   5.257   2.953 -1.1479  4.1447  1.4922
  240DOPC   H5Y33082  12.082   5.373   3.026  0.4882 -0.2570  2.4247
  240DOPC   C3633083  12.051   5.187   3.130  0.1966 -0.5647  0.7463
  240DOPC   H6X33084  11.969   5.235   3.187  0.3183  2.4760 -1.3813
  240DOPC   H6Y33085  12.014   5.085   3.106 -3.0377  0.5850  0.3398
  240DOPC   C3733086  12.181   5.169   3.210 -0.7051 -0.5236 -0.2278
  240DOPC   H7X33087  12.166   5.090   3.286 -1.9643 -1.4274 -1.3677
  240DOPC   H7Y33088  12.254   5.118   3.142  0.6912  1.6800 -0.4875
  240DOPC   C3833089  12.237   5.302   3.271 -0.0626 -0.2020 -0.1086
  240DOPC   H8X33090  12.186   5.314   3.369 -1.5015 -1.8320 -0.6017
  240DOPC   H8Y33091  12.226   5.390   3.205  0.7238 -0.1674 -0.2010
  240DOPC   C3933092  12.384   5.270   3.286 -0.7199  0.3596  0.2576
  240DOPC   H9X33093  12.438   5.262   3.191 -1.3550 -2.4950  0.0439
  240DOPC  C31033094  12.453   5.240   3.396  0.4494 -0.5272  0.1470
  240DOPC  H10X33095  12.562   5.228   3.397  0.6698  1.1717  1.7670
  240DOPC  C31133096  12.389   5.262   3.532 -0.6332 -0.0307 -0.3864
  240DOPC  H11X33097  12.314   5.181   3.544  0.8765 -1.5788 -0.9642
  240DOPC  H11Y33098  12.350   5.365   3.537  2.8682  1.4508 -0.6168
  240DOPC  C31233099  12.493   5.266   3.654 -0.2741 -0.6115  0.0813
  240DOPC  H12X33100  12.436   5.286   3.747 -1.1110  1.4207 -0.8030
  240DOPC  H12Y33101  12.559   5.351   3.629 -1.3737  0.1704 -0.2787
  240DOPC  C31333102  12.575   5.141   3.676 -0.0984  0.0224 -0.1650
  240DOPC  H13X33103  12.508   5.052   3.669  2.3492 -1.9746  0.3514
  240DOPC  H13Y33104  12.639   5.135   3.585  0.4440 -0.7392  0.2621
  240DOPC  C31433105  12.649   5.115   3.811 -0.0735  0.0972 -0.7503
  240DOPC  H14X33106  12.744   5.171   3.826 -1.3808  1.8704  1.3555
  240DOPC  H14Y33107  12.576   5.143   3.890 -0.6262  1.9081 -1.8322
  240DOPC  C31533108  12.707   4.972   3.813 -0.5588 -0.2675  0.1436
  240DOPC  H15X33109  12.775   4.960   3.727 -0.6292 -3.0106  0.3715
  240DOPC  H15Y33110  12.623   4.901   3.796 -1.2824  0.4145  0.7533
  240DOPC  C31633111  12.784   4.944   3.945  0.0323 -0.0967 -0.1480
  240DOPC  H16X33112  12.720   4.975   4.030 -1.1780  0.7683 -1.3309
  240DOPC  H16Y33113  12.802   4.834   3.947 -1.2616 -0.3779 -1.4244
  240DOPC  C31733114  12.922   5.009   3.948 -0.5533 -0.3313 -0.6628
  240DOPC  H17X33115  12.959   4.962   3.854  0.7518 -1.1741  0.2404
  240DOPC  H17Y33116  12.929   5.119   3.941 -0.5225 -0.2403  0.5746
  240DOPC  C31833117  12.995   4.961   4.073 -0.0432  0.5416  0.7264
  240DOPC  H18X33118  13.089   5.020   4.071  0.9012 -0.8609 -2.2508
  240DOPC  H18Y33119  12.941   4.976   4.169 -0.5778 -0.1064  0.5441
  240DOPC  H18Z33120  13.029   4.855   4.064  0.8757  0.9580 -1.0786
  241DOPC     N33121  12.294  10.504   1.665 -0.2927 -0.2181 -0.1976
  241DOPC   C1233122  12.268  10.498   1.811  0.4579  0.0573 -0.0708
  241DOPC  H12A33123  12.281  10.594   1.859 -1.5022  0.8480 -1.0190
  241DOPC  H12B33124  12.337  10.427   1.855  0.7229 -0.5332 -1.3946
  241DOPC   C1333125  12.311  10.364   1.608  0.6623 -0.6713  0.1891
  241DOPC  H13A33126  12.391  10.314   1.659  2.1124  1.2371 -0.0841
  241DOPC  H13B33127  12.214  10.316   1.605 -0.3886  1.3419 -0.8887
  241DOPC  H13C33128  12.337  10.382   1.505  2.5846  0.3762  0.8036
  241DOPC   C1433129  12.414  10.598   1.652  0.0378  0.1786  0.1459
  241DOPC  H14A33130  12.461  10.585   1.556  0.2817  0.3473  0.2430
  241DOPC  H14B33131  12.394  10.703   1.668  2.2676  1.0666 -2.2178
  241DOPC  H14C33132  12.492  10.575   1.723  0.1574 -1.1005 -0.3839
  241DOPC   C1533133  12.178  10.562   1.599  0.0260 -0.1524  0.3718
  241DOPC  H15A33134  12.208  10.583   1.497  1.2100 -0.6522  0.6049
  241DOPC  H15B33135  12.155  10.659   1.641  1.4661 -0.6770  2.5275
  241DOPC  H15C33136  12.096  10.492   1.605  0.0869 -0.2470  0.1386
  241DOPC   C1133137  12.125  10.456   1.861 -0.4681  1.0947 -0.1974
  241DOPC  H11A33138  12.095  10.368   1.799 -1.8714  1.6703 -0.3675
  241DOPC  H11B33139  12.131  10.417   1.964 -2.6367 -0.9007 -0.7441
  241DOPC     P33140  12.028  10.705   1.886 -0.3032  0.2128  0.1230
  241DOPC   O1333141  11.936  10.776   1.797  0.5724 -0.3774 -0.9124
  241DOPC   O1433142  12.166  10.763   1.885  0.2527 -0.3350  0.0498
  241DOPC   O1233143  12.021  10.559   1.845  0.4863 -0.1520  0.1478
  241DOPC   O1133144  11.967  10.718   2.023 -0.1830  0.2082 -0.6350
  241DOPC    C133145  11.999  10.644   2.135  0.1430  0.5156  0.1733
  241DOPC    HA33146  12.103  10.662   2.168  0.5915 -1.1535 -0.2323
  241DOPC    HB33147  11.996  10.535   2.116  1.6435  0.7491 -1.6908
  241DOPC    C233148  11.891  10.672   2.245  0.3691 -0.0551  0.5604
  241DOPC    HS33149  11.892  10.780   2.271 -0.9714  0.0128  0.4160
  241DOPC   O2133150  11.907  10.585   2.363  0.2393  0.6536 -0.2332
  241DOPC   C2133151  12.014  10.614   2.436  0.0735  0.1128 -0.2783
  241DOPC   O2233152  12.090  10.704   2.419  0.0836 -0.0446 -0.4190
  241DOPC   C2233153  12.029  10.512   2.544 -0.4691  0.1535 -0.3140
  241DOPC   H2R33154  12.124  10.456   2.531 -0.4579 -1.1838  4.0166
  241DOPC   H2S33155  11.935  10.453   2.545  0.9156 -2.1372  1.1223
  241DOPC    C333156  11.740  10.659   2.187  0.1698 -0.4780 -0.5388
  241DOPC    HX33157  11.726  10.550   2.173  1.3647 -1.0346  1.9527
  241DOPC    HY33158  11.730  10.710   2.089  1.0472  1.4379  0.3167
  241DOPC   O3133159  11.643  10.702   2.289  0.3617  0.6176  0.1761
  241DOPC   C3133160  11.609  10.833   2.288  0.1151 -0.2129  0.4052
  241DOPC   O3233161  11.656  10.916   2.214  0.0452  0.3443  0.3740
  241DOPC   C3233162  11.505  10.864   2.399  0.1036 -0.0103 -0.7346
  241DOPC   H2X33163  11.422  10.918   2.347 -0.2426  2.2380  1.9232
  241DOPC   H2Y33164  11.453  10.774   2.437 -1.8003  1.1910 -0.3061
  241DOPC   C2333165  12.051  10.583   2.684 -0.1087 -0.1111 -0.4995
  241DOPC   H3R33166  11.974  10.662   2.699  1.7383  1.8442 -0.8430
  241DOPC   H3S33167  12.154  10.624   2.670 -0.4544  0.4829 -1.4061
  241DOPC   C2433168  12.062  10.489   2.800  0.0226  0.5207 -0.3239
  241DOPC   H4R33169  12.113  10.396   2.768  0.1099  0.0385  1.1269
  241DOPC   H4S33170  11.962  10.449   2.827  0.1637  0.9241  0.8609
  241DOPC   C2533171  12.136  10.538   2.922  0.0686 -0.0825  0.1070
  241DOPC   H5R33172  12.096  10.640   2.935 -1.8764 -0.9584  1.4851
  241DOPC   H5S33173  12.245  10.550   2.900 -0.4187  1.5295 -1.6629
  241DOPC   C2633174  12.110  10.460   3.051  0.8234 -0.1502 -0.3005
  241DOPC   H6R33175  12.131  10.352   3.037  4.4327  0.5888 -1.6273
  241DOPC   H6S33176  12.006  10.479   3.084  0.5510 -0.4537 -0.9616
  241DOPC   C2733177  12.193  10.526   3.157  0.0498 -0.1887  0.3304
  241DOPC   H7R33178  12.164  10.633   3.158 -1.4853 -0.5702  2.0453
  241DOPC   H7S33179  12.300  10.525   3.128  0.4771 -1.3593  1.8140
  241DOPC   C2833180  12.151  10.481   3.299 -1.0802 -0.8288  0.0109
  241DOPC   H8R33181  12.170  10.376   3.328  0.3900 -0.3461  0.8717
  241DOPC   H8S33182  12.041  10.498   3.308 -0.7947  0.1600  2.6228
  241DOPC   C2933183  12.225  10.544   3.409  0.6750 -0.4581 -0.2395
  241DOPC   H9R33184  12.331  10.556   3.382  0.0363  1.0743 -2.2824
  241DOPC  C21033185  12.181  10.612   3.519 -0.1984 -0.4670  0.7344
  241DOPC  H10R33186  12.258  10.658   3.581 -0.4131  0.5565  0.2556
  241DOPC  C21133187  12.038  10.640   3.569 -0.0949  0.7121  0.7835
  241DOPC  H11R33188  11.961  10.609   3.495  1.8604 -0.6679 -0.8067
  241DOPC  H11S33189  12.031  10.750   3.571  0.7006  0.7651  1.4100
  241DOPC  C21233190  12.004  10.583   3.708  0.2704  0.5233  0.6993
  241DOPC  H12R33191  12.010  10.472   3.703  0.0048  0.5577 -1.0863
  241DOPC  H12S33192  11.895  10.599   3.724  0.2603  1.0732  0.1249
  241DOPC  C21333193  12.092  10.629   3.824 -0.2042 -0.3791 -0.1206
  241DOPC  H13R33194  12.106  10.739   3.811  1.0118 -0.2635  1.7387
  241DOPC  H13S33195  12.190  10.578   3.812 -0.0931  0.3049 -2.8780
  241DOPC  C21433196  12.030  10.627   3.962  0.0958 -0.1236 -0.1621
  241DOPC  H14R33197  11.931  10.674   3.943  0.7892  1.6884  0.4289
  241DOPC  H14S33198  12.090  10.685   4.035  0.3824  0.9852 -1.2486
  241DOPC  C21533199  12.019  10.483   4.012  0.2423  0.7163 -0.3872
  241DOPC  H15R33200  12.119  10.435   4.003 -1.3743 -3.3121  0.9305
  241DOPC  H15S33201  11.958  10.422   3.941  1.0126  2.0180 -2.2668
  241DOPC  C21633202  11.965  10.484   4.158  0.2186  0.4926 -0.0055
  241DOPC  H16R33203  11.881  10.556   4.152 -1.3133 -1.2936 -1.5136
  241DOPC  H16S33204  12.051  10.521   4.217 -0.0937 -1.6991  1.9470
  241DOPC  C21733205  11.916  10.354   4.215  0.3125  0.2050  0.6689
  241DOPC  H17R33206  12.002  10.283   4.204 -1.1420 -1.3438 -1.7242
  241DOPC  H17S33207  11.836  10.320   4.146 -0.0176  1.4806  0.4001
  241DOPC  C21833208  11.870  10.357   4.358 -0.6376 -0.8135 -0.4842
  241DOPC  H18R33209  11.782  10.426   4.359 -0.5369 -0.6544  1.6051
  241DOPC  H18S33210  11.945  10.405   4.425  0.1886 -1.8084 -0.6675
  241DOPC  H18T33211  11.843  10.260   4.404 -0.1070 -0.4170  0.7151
  241DOPC   C3333212  11.558  10.944   2.521  0.0985 -0.5748 -0.1534
  241DOPC   H3X33213  11.472  10.940   2.591  1.4682  1.2169  1.7363
  241DOPC   H3Y33214  11.572  11.051   2.498 -1.0680 -0.2303  0.6851
  241DOPC   C3433215  11.681  10.887   2.587  0.1608  1.0737 -0.0158
  241DOPC   H4X33216  11.725  10.958   2.660  0.4488 -0.0144  0.9027
  241DOPC   H4Y33217  11.769  10.864   2.523  2.1628  0.3299  2.7956
  241DOPC   C3533218  11.649  10.758   2.662  0.1300  0.4349  0.4203
  241DOPC   H5X33219  11.744  10.727   2.711  2.5216  0.0761 -3.9771
  241DOPC   H5Y33220  11.617  10.678   2.592 -2.5325  0.7992  1.1246
  241DOPC   C3633221  11.551  10.777   2.781  0.1620 -0.2978 -0.3268
  241DOPC   H6X33222  11.569  10.872   2.835 -1.6222  0.6842 -1.3888
  241DOPC   H6Y33223  11.445  10.779   2.749 -0.1277  1.9279  0.6363
  241DOPC   C3733224  11.566  10.664   2.883  0.5268  0.8320 -0.4725
  241DOPC   H7X33225  11.469  10.646   2.935  1.0772 -3.7794 -0.5764
  241DOPC   H7Y33226  11.591  10.571   2.827  0.1198 -0.1174  0.8682
  241DOPC   C3833227  11.678  10.693   2.990 -0.1374  0.0891 -0.1941
  241DOPC   H8X33228  11.622  10.762   3.056 -1.3994 -2.3886  1.4550
  241DOPC   H8Y33229  11.767  10.739   2.942  0.3948  1.8939  2.3410
  241DOPC   C3933230  11.731  10.571   3.065  0.4014  0.2848 -0.1716
  241DOPC   H9X33231  11.804  10.516   3.004 -0.3920  1.5626 -2.3674
  241DOPC  C31033232  11.693  10.530   3.186 -0.0351  0.8538 -0.5849
  241DOPC  H10X33233  11.744  10.443   3.231 -0.6772 -1.6727 -4.2793
  241DOPC  C31133234  11.597  10.600   3.275  0.0866 -0.1869 -0.2275
  241DOPC  H11X33235  11.495  10.588   3.234 -0.3587 -2.5781  1.3787
  241DOPC  H11Y33236  11.621  10.708   3.266  1.5880 -0.5745 -1.3036
  241DOPC  C31233237  11.606  10.582   3.425  0.2996  1.2345  0.6246
  241DOPC  H12X33238  11.715  10.590   3.446  0.0903 -0.2264  2.6096
  241DOPC  H12Y33239  11.585  10.477   3.455  1.2929  0.7033 -0.4498
  241DOPC  C31333240  11.528  10.672   3.516 -0.0424  0.2958 -0.0444
  241DOPC  H13X33241  11.580  10.769   3.501  0.3777  0.2720  1.1071
  241DOPC  H13Y33242  11.426  10.679   3.472  0.8730 -0.7413 -2.4491
  241DOPC  C31433243  11.530  10.628   3.662  0.2793 -0.1299 -0.0748
  241DOPC  H14X33244  11.502  10.521   3.661 -0.6822  0.1106 -0.2254
  241DOPC  H14Y33245  11.637  10.637   3.691 -0.2188  1.0274  1.5377
  241DOPC  C31533246  11.442  10.710   3.749  0.0642 -0.7588 -0.5317
  241DOPC  H15X33247  11.478  10.813   3.732  0.1194 -0.7838 -0.5664
  241DOPC  H15Y33248  11.455  10.680   3.855  0.6711  0.3796 -0.2717
  241DOPC  C31633249  11.292  10.710   3.704  0.1600  0.0409 -0.3286
  241DOPC  H16X33250  11.274  10.747   3.600 -0.8079  0.4210 -0.0338
  241DOPC  H16Y33251  11.261  10.603   3.700 -0.3176  0.0702  1.5881
  241DOPC  C31733252  11.209  10.808   3.783  0.2418  0.9291  0.5249
  241DOPC  H17X33253  11.227  10.787   3.890  2.9462 -0.6683 -0.1571
  241DOPC  H17Y33254  11.240  10.912   3.760 -1.6876  1.2202 -1.0432
  241DOPC  C31833255  11.060  10.796   3.745  0.5253 -0.3043  0.7559
  241DOPC  H18X33256  11.032  10.821   3.641 -0.0633 -1.6071  0.5815
  241DOPC  H18Y33257  11.025  10.694   3.770  0.9705 -1.5767 -3.1569
  241DOPC  H18Z33258  10.995  10.859   3.809  0.7746  0.7948 -0.0378
  242DOPC     N33259   8.240   6.420   1.600  0.1929  1.1919  0.0179
  242DOPC   C1233260   8.382   6.446   1.634  0.9387 -0.2456 -0.7551
  242DOPC  H12A33261   8.390   6.552   1.648  1.8874 -0.5354  1.1522
  242DOPC  H12B33262   8.443   6.413   1.551  0.4829 -0.9869 -0.8124
  242DOPC   C1333263   8.149   6.478   1.696 -0.0369 -0.1761 -0.4233
  242DOPC  H13A33264   8.164   6.585   1.700  1.3107 -0.2192 -2.8638
  242DOPC  H13B33265   8.047   6.471   1.660  0.4712  0.7815 -2.1570
  242DOPC  H13C33266   8.158   6.424   1.790 -1.9682 -0.9219 -0.6239
  242DOPC   C1433267   8.220   6.274   1.587 -0.1955  0.0238  0.0820
  242DOPC  H14A33268   8.239   6.235   1.686  1.4104  2.2274  0.7075
  242DOPC  H14B33269   8.116   6.265   1.557 -0.7300 -0.3907  1.9378
  242DOPC  H14C33270   8.290   6.234   1.515  1.9705  0.7454  1.7021
  242DOPC   C1533271   8.203   6.469   1.467  0.0749  0.3205 -0.0418
  242DOPC  H15A33272   8.251   6.412   1.388 -0.5230 -0.0764 -0.1267
  242DOPC  H15B33273   8.234   6.572   1.464 -0.6804  0.5444 -2.1685
  242DOPC  H15C33274   8.096   6.469   1.453  0.1261  1.8845 -0.6868
  242DOPC   C1133275   8.457   6.371   1.746  0.0989  0.0051  0.1742
  242DOPC  H11A33276   8.486   6.268   1.716 -0.4654 -0.2439  0.4626
  242DOPC  H11B33277   8.553   6.424   1.760  0.7337 -0.9951 -0.2682
  242DOPC     P33278   8.391   6.480   1.974  0.1432  0.0091 -0.3645
  242DOPC   O1333279   8.268   6.476   2.059  0.1486 -0.5298  0.1866
  242DOPC   O1433280   8.423   6.604   1.899 -0.1371  0.5018  0.0176
  242DOPC   O1233281   8.375   6.365   1.866 -0.0387 -0.2305  0.2026
  242DOPC   O1133282   8.517   6.445   2.053  0.0444 -0.6398  0.1490
  242DOPC    C133283   8.577   6.314   2.070  0.0061  0.1195 -0.4099
  242DOPC    HA33284   8.688   6.318   2.063  0.1782 -2.6080 -0.1584
  242DOPC    HB33285   8.546   6.237   1.996 -0.2449  1.2018 -1.4721
  242DOPC    C233286   8.545   6.244   2.210 -0.6340 -0.2668  0.0031
  242DOPC    HS33287   8.437   6.222   2.195 -0.9732 -0.7515  2.7286
  242DOPC   O2133288   8.556   6.343   2.308 -0.5763 -0.2095 -0.0665
  242DOPC   C2133289   8.467   6.341   2.405 -0.5627  0.0029 -0.8834
  242DOPC   O2233290   8.376   6.260   2.421  0.1050  0.5406 -0.0899
  242DOPC   C2233291   8.489   6.461   2.496  0.5969 -0.4240 -0.4742
  242DOPC   H2R33292   8.388   6.498   2.524  0.0861 -1.8239 -0.4035
  242DOPC   H2S33293   8.529   6.538   2.426 -0.2887  0.8294  0.3664
  242DOPC    C333294   8.613   6.111   2.249  0.0480 -0.2916 -0.8914
  242DOPC    HX33295   8.724   6.123   2.249  0.0013  0.2831  0.6006
  242DOPC    HY33296   8.589   6.026   2.182  1.0358 -1.1723 -0.1587
  242DOPC   O3133297   8.586   6.071   2.382  0.0682 -0.6289 -0.3042
  242DOPC   C3133298   8.499   5.965   2.400  0.0344 -0.1581  0.3316
  242DOPC   O3233299   8.429   5.912   2.318 -0.6169  0.5197  0.0565
  242DOPC   C3233300   8.519   5.914   2.539  0.0637 -0.0157 -0.7915
  242DOPC   H2X33301   8.476   5.812   2.531 -1.5813  0.4178  1.6222
  242DOPC   H2Y33302   8.625   5.909   2.572  0.2668 -0.4957 -1.4868
  242DOPC   C2333303   8.575   6.424   2.616  0.6475  0.5917  0.4416
  242DOPC   H3R33304   8.672   6.385   2.579  0.4398  1.5095 -1.1536
  242DOPC   H3S33305   8.527   6.342   2.673  0.0675 -0.4057 -1.4004
  242DOPC   C2433306   8.580   6.539   2.720 -0.4001 -0.3062  0.4534
  242DOPC   H4R33307   8.476   6.571   2.743 -1.2493  0.3056 -3.4049
  242DOPC   H4S33308   8.630   6.626   2.674  0.3374 -1.9556 -2.0971
  242DOPC   C2533309   8.654   6.495   2.846 -0.0470 -0.1131 -0.3285
  242DOPC   H5R33310   8.744   6.450   2.800 -0.3013  0.0854 -1.0533
  242DOPC   H5S33311   8.599   6.411   2.893 -0.3924 -0.3425 -1.1137
  242DOPC   C2633312   8.697   6.604   2.944 -0.8035 -0.6454 -0.0876
  242DOPC   H6R33313   8.610   6.654   2.992  1.0980  1.4712  1.3291
  242DOPC   H6S33314   8.749   6.684   2.888 -0.9764 -0.9476 -0.6949
  242DOPC   C2733315   8.785   6.557   3.053  0.0454 -0.6821  0.4800
  242DOPC   H7R33316   8.879   6.520   3.007 -0.0892 -0.2622 -0.1401
  242DOPC   H7S33317   8.732   6.472   3.102  0.5070 -0.1406  1.9794
  242DOPC   C2833318   8.820   6.657   3.160  0.4039 -0.6672  0.0081
  242DOPC   H8R33319   8.730   6.717   3.185  0.8731  0.5635 -1.1499
  242DOPC   H8S33320   8.886   6.736   3.119  2.0805 -0.1326  3.4093
  242DOPC   C2933321   8.875   6.588   3.288  0.9230  0.7882  0.0405
  242DOPC   H9R33322   8.799   6.560   3.363  0.4186 -2.8129 -1.5861
  242DOPC  C21033323   9.001   6.560   3.306  0.3833  0.1324 -0.3088
  242DOPC  H10R33324   9.025   6.496   3.392  0.2189  0.7143  0.1751
  242DOPC  C21133325   9.114   6.579   3.207  0.3032 -0.1790  0.3454
  242DOPC  H11R33326   9.073   6.609   3.108 -1.6284  1.8155  1.6703
  242DOPC  H11S33327   9.169   6.484   3.188 -0.7967 -0.4055 -2.1083
  242DOPC  C21233328   9.211   6.691   3.245 -0.0873 -0.0329  0.5051
  242DOPC  H12R33329   9.306   6.694   3.187  0.6966  0.3562  1.7546
  242DOPC  H12S33330   9.239   6.661   3.349  1.8021 -0.9931 -0.2317
  242DOPC  C21333331   9.156   6.834   3.228 -0.0282  0.4453 -0.0319
  242DOPC  H13R33332   9.099   6.849   3.323  1.0899 -2.6176  1.2449
  242DOPC  H13S33333   9.093   6.844   3.137  0.2101  1.3414 -0.1134
  242DOPC  C21433334   9.258   6.942   3.213 -0.4011  0.0112  0.3533
  242DOPC  H14R33335   9.316   6.918   3.122 -1.6802 -1.4191 -0.1408
  242DOPC  H14S33336   9.320   6.937   3.305  2.5762 -3.2748 -1.6265
  242DOPC  C21533337   9.211   7.085   3.200  0.3638 -0.0795 -0.5263
  242DOPC  H15R33338   9.157   7.106   3.106 -0.4314 -1.9787 -0.5246
  242DOPC  H15S33339   9.298   7.155   3.197 -1.9610  3.1544  1.0384
  242DOPC  C21633340   9.127   7.132   3.319 -0.2581 -0.5343  0.2876
  242DOPC  H16R33341   9.148   7.074   3.412 -1.0926  2.1951  2.3291
  242DOPC  H16S33342   9.021   7.113   3.294  0.0937 -0.8579 -1.0284
  242DOPC  C21733343   9.140   7.285   3.336 -0.0399  0.7144  0.3958
  242DOPC  H17R33344   9.103   7.334   3.243 -1.4759  0.9713  1.0731
  242DOPC  H17S33345   9.246   7.311   3.354  0.3829 -0.6731  0.0807
  242DOPC  C21833346   9.045   7.336   3.447  0.2355 -0.2973 -0.2212
  242DOPC  H18R33347   9.067   7.290   3.546 -2.1080 -0.8997  0.0840
  242DOPC  H18S33348   8.935   7.319   3.443 -0.0772  0.2170  3.2727
  242DOPC  H18T33349   9.058   7.446   3.450 -1.4084 -0.0610 -0.7698
  242DOPC   C3333350   8.440   5.998   2.648 -0.6107  0.3179 -0.1270
  242DOPC   H3X33351   8.335   6.013   2.616 -0.3837  1.1744 -0.4914
  242DOPC   H3Y33352   8.497   6.092   2.633 -1.0664  0.6390  0.1313
  242DOPC   C3433353   8.467   5.940   2.788  0.5822 -0.0079  1.3039
  242DOPC   H4X33354   8.577   5.923   2.792  0.5227 -1.6051 -1.3730
  242DOPC   H4Y33355   8.409   5.845   2.800  2.7018 -1.7109 -0.9582
  242DOPC   C3533356   8.415   6.034   2.899 -0.0893 -0.6841  0.6953
  242DOPC   H5X33357   8.308   6.059   2.881  0.6572  1.4698 -1.2408
  242DOPC   H5Y33358   8.452   6.139   2.896 -1.6615 -0.1322 -0.3759
  242DOPC   C3633359   8.407   5.973   3.034 -1.0098  0.4190 -0.0643
  242DOPC   H6X33360   8.382   5.866   3.023  0.9697  0.0613 -1.8625
  242DOPC   H6Y33361   8.509   5.962   3.078 -1.0459 -0.3330 -0.1611
  242DOPC   C3733362   8.319   6.047   3.134 -0.1955 -0.3277 -0.4799
  242DOPC   H7X33363   8.344   6.155   3.125 -1.0765  0.0068  0.7149
  242DOPC   H7Y33364   8.214   6.031   3.100 -0.6106 -0.1250  0.6730
  242DOPC   C3833365   8.338   5.999   3.278  0.5561  0.0326  0.4756
  242DOPC   H8X33366   8.442   6.025   3.307  0.8725 -1.1199  0.4017
  242DOPC   H8Y33367   8.329   5.888   3.281  0.7442  0.0059  0.0623
  242DOPC   C3933368   8.245   6.055   3.388  0.0488 -0.2480  0.4182
  242DOPC   H9X33369   8.142   6.068   3.353  0.2412  1.3385  0.3522
  242DOPC  C31033370   8.283   6.106   3.508 -0.4921 -0.3774  0.2647
  242DOPC  H10X33371   8.209   6.145   3.579  1.0586  2.5963  0.4003
  242DOPC  C31133372   8.417   6.096   3.574  0.4656  0.4936  0.1203
  242DOPC  H11X33373   8.478   6.189   3.572  0.6572  0.5186  2.9626
  242DOPC  H11Y33374   8.477   6.019   3.521 -0.6372  0.5751 -1.3069
  242DOPC  C31233375   8.397   6.057   3.722  0.4498 -0.0358  0.3118
  242DOPC  H12X33376   8.496   6.023   3.760  1.0390  0.6275 -0.6077
  242DOPC  H12Y33377   8.325   5.972   3.722 -0.8110  0.9297 -2.6330
  242DOPC  C31333378   8.349   6.165   3.815  0.1035  0.0055  0.6038
  242DOPC  H13X33379   8.427   6.244   3.810 -1.6162  1.6931 -1.1840
  242DOPC  H13Y33380   8.262   6.217   3.771  1.3774 -1.0381 -3.5889
  242DOPC  C31433381   8.313   6.119   3.953 -1.2965 -0.4483 -0.5524
  242DOPC  H14X33382   8.214   6.068   3.956 -0.8763 -1.3109 -0.8209
  242DOPC  H14Y33383   8.392   6.050   3.990  0.1033  1.8512  0.9449
  242DOPC  C31533384   8.314   6.225   4.067 -0.4299  0.6908 -0.3885
  242DOPC  H15X33385   8.408   6.281   4.048 -1.0857  2.3708  1.0111
  242DOPC  H15Y33386   8.306   6.179   4.168  0.8398  3.4759  1.0835
  242DOPC  C31633387   8.196   6.326   4.054  0.0560 -0.1254 -0.0549
  242DOPC  H16X33388   8.216   6.398   3.972  0.2254  0.3545  0.3998
  242DOPC  H16Y33389   8.106   6.261   4.047  0.0172 -0.5731  3.1305
  242DOPC  C31733390   8.198   6.412   4.179  0.0655 -0.0501 -0.5388
  242DOPC  H17X33391   8.165   6.348   4.263 -0.2771 -0.8126 -1.2377
  242DOPC  H17Y33392   8.301   6.444   4.206  0.5718 -1.8946 -0.1758
  242DOPC  C31833393   8.103   6.533   4.167  0.0408 -0.0432  0.0812
  242DOPC  H18X33394   7.997   6.500   4.163  0.0675 -0.2432  0.8617
  242DOPC  H18Y33395   8.125   6.600   4.252  0.8517 -0.0971 -0.0797
  242DOPC  H18Z33396   8.127   6.588   4.074  0.3771  0.6905  0.5959
  243DOPC     N33397   0.827   9.923   1.817 -0.4258  0.5862 -0.3197
  243DOPC   C1233398   0.853  10.041   1.914 -0.0826 -0.5377 -0.8192
  243DOPC  H12A33399   0.765  10.103   1.922 -0.5142 -1.1579 -0.7271
  243DOPC  H12B33400   0.925  10.102   1.862 -0.5480  0.3284 -0.4620
  243DOPC   C1333401   0.719   9.845   1.872  0.3393 -0.3080  0.1669
  243DOPC  H13A33402   0.705   9.756   1.813 -1.2624 -1.6038  2.3466
  243DOPC  H13B33403   0.739   9.817   1.974  1.7189  1.4416  0.4203
  243DOPC  H13C33404   0.626   9.901   1.874 -0.6931 -1.8414  3.7715
  243DOPC   C1433405   0.934   9.821   1.804 -0.1467 -0.6580 -0.4853
  243DOPC  H14A33406   1.031   9.857   1.773 -0.2632  0.6125  0.5384
  243DOPC  H14B33407   0.946   9.772   1.899  0.1412 -0.4597 -0.4152
  243DOPC  H14C33408   0.904   9.738   1.741 -2.0103 -0.5225  0.1635
  243DOPC   C1533409   0.780   9.981   1.683  0.1981  0.2383  0.0592
  243DOPC  H15A33410   0.768   9.903   1.610  1.0992 -1.0508  1.2351
  243DOPC  H15B33411   0.865  10.037   1.647  0.6479  0.6102  1.5976
  243DOPC  H15C33412   0.694  10.046   1.690 -0.3530 -0.5060  0.2415
  243DOPC   C1133413   0.901  10.022   2.063 -0.3797 -0.3426 -0.8023
  243DOPC  H11A33414   0.999   9.969   2.064  0.8699  1.8509 -1.2264
  243DOPC  H11B33415   0.942  10.116   2.105  2.4070 -1.9166  0.2714
  243DOPC     P33416   0.683  10.041   2.201 -0.1617  0.5341 -0.4906
  243DOPC   O1333417   0.582   9.952   2.260  0.5357  0.0172 -0.0825
  243DOPC   O1433418   0.636  10.141   2.103 -0.0982 -0.3057  0.2202
  243DOPC   O1233419   0.805   9.952   2.135 -0.0533 -0.0806 -0.0998
  243DOPC   O1133420   0.745  10.125   2.316  0.1253 -0.2288  0.6031
  243DOPC    C133421   0.818  10.064   2.419  0.6161 -1.2104 -0.6238
  243DOPC    HA33422   0.878  10.140   2.474  0.1718 -0.7983 -0.7101
  243DOPC    HB33423   0.888   9.991   2.373 -0.2264 -0.9857 -2.3014
  243DOPC    C233424   0.729   9.989   2.522  0.9425  0.4041 -0.3639
  243DOPC    HS33425   0.698   9.898   2.466  1.3787 -0.4959  0.8097
  243DOPC   O2133426   0.620  10.071   2.566 -0.3661 -0.3384 -0.0880
  243DOPC   C2133427   0.513  10.001   2.607  0.5243  0.0747 -0.9857
  243DOPC   O2233428   0.494   9.883   2.584 -0.3466 -0.1703 -0.3772
  243DOPC   C2233429   0.411  10.088   2.689 -0.3764 -0.5079  0.4648
  243DOPC   H2R33430   0.323  10.022   2.705 -1.3829  0.6064 -0.3658
  243DOPC   H2S33431   0.380  10.173   2.625 -0.3720 -1.8294 -1.3631
  243DOPC    C333432   0.809   9.936   2.635  0.1073 -0.1658  0.3591
  243DOPC    HX33433   0.861  10.023   2.680  1.7100 -0.7358 -0.3253
  243DOPC    HY33434   0.888   9.872   2.590  0.9321  0.9625  0.1636
  243DOPC   O3133435   0.735   9.869   2.734 -0.5328  0.0280 -0.4065
  243DOPC   C3133436   0.725   9.735   2.714 -0.2333  0.2723 -0.1772
  243DOPC   O3233437   0.763   9.673   2.618 -0.3431  0.1601 -0.2924
  243DOPC   C3233438   0.669   9.677   2.848 -0.5138  0.4510  0.3121
  243DOPC   H2X33439   0.560   9.697   2.853 -0.3728  1.4231 -0.2039
  243DOPC   H2Y33440   0.687   9.568   2.835 -0.0805  0.4222  1.0795
  243DOPC   C2333441   0.478  10.151   2.817  0.4120 -0.3788 -0.0538
  243DOPC   H3R33442   0.397  10.208   2.867  1.2891 -0.5027  1.6007
  243DOPC   H3S33443   0.556  10.222   2.784  0.0490 -0.0272 -0.1634
  243DOPC   C2433444   0.539  10.039   2.904  0.1152  0.6712  0.0092
  243DOPC   H4R33445   0.631   9.998   2.857  0.1690  2.3576 -1.4953
  243DOPC   H4S33446   0.466   9.958   2.923 -0.7861  1.3621 -0.4064
  243DOPC   C2533447   0.574  10.090   3.048 -0.4387  0.0514 -0.2474
  243DOPC   H5R33448   0.634  10.183   3.041 -0.5282  0.0175 -1.7370
  243DOPC   H5S33449   0.640  10.013   3.095 -0.4966 -0.9784 -1.7833
  243DOPC   C2633450   0.453  10.131   3.139  0.9187  0.4258 -0.1476
  243DOPC   H6R33451   0.390  10.041   3.159  1.5225 -0.5089 -2.2192
  243DOPC   H6S33452   0.393  10.202   3.078  1.3444  1.0209  0.1181
  243DOPC   C2733453   0.491  10.195   3.278 -0.1972  0.1099  0.8935
  243DOPC   H7R33454   0.559  10.283   3.270  0.2837 -0.3660 -0.5726
  243DOPC   H7S33455   0.542  10.120   3.342 -0.4419 -0.9690 -0.1332
  243DOPC   C2833456   0.363  10.246   3.350 -0.1115 -0.5867 -0.0680
  243DOPC   H8R33457   0.400  10.298   3.441 -1.1764  0.7428 -0.3522
  243DOPC   H8S33458   0.313  10.151   3.378 -1.3993 -0.2102 -0.9473
  243DOPC   C2933459   0.273  10.343   3.279  0.7069  0.1694 -0.1612
  243DOPC   H9R33460   0.272  10.348   3.169  0.6183 -2.6563 -0.3475
  243DOPC  C21033461   0.207  10.442   3.342  0.3795 -0.1068  0.0563
  243DOPC  H10R33462   0.134  10.495   3.279  0.8072 -0.0784 -0.4300
  243DOPC  C21133463   0.202  10.468   3.493  0.2323 -0.4805 -0.1582
  243DOPC  H11R33464   0.260  10.393   3.550 -2.0278 -3.1443 -1.1217
  243DOPC  H11S33465   0.095  10.449   3.516  0.1763 -1.1115 -0.8801
  243DOPC  C21233466   0.245  10.609   3.542 -0.0184  0.7397  0.6623
  243DOPC  H12R33467   0.241  10.606   3.653  0.4560 -2.4235  0.6942
  243DOPC  H12S33468   0.174  10.688   3.511 -1.5867 -0.4892  0.9661
  243DOPC  C21333469   0.394  10.636   3.514  0.1458 -0.1498 -0.6271
  243DOPC  H13R33470   0.405  10.652   3.404  1.3093  1.5887 -0.3063
  243DOPC  H13S33471   0.449  10.546   3.547 -1.5181 -0.3784  1.7440
  243DOPC  C21433472   0.443  10.758   3.595 -0.1670  0.4498 -0.6357
  243DOPC  H14R33473   0.422  10.748   3.703 -0.3502 -1.0827 -0.7947
  243DOPC  H14S33474   0.394  10.852   3.560  1.9110  1.1202 -1.9369
  243DOPC  C21533475   0.598  10.784   3.588 -0.0749  0.3307 -0.3430
  243DOPC  H15R33476   0.630  10.804   3.483  0.3580  0.3714 -0.2058
  243DOPC  H15S33477   0.655  10.702   3.636 -1.8738  0.3648  2.0476
  243DOPC  C21633478   0.647  10.904   3.671 -0.0828  0.0117  0.6712
  243DOPC  H16R33479   0.599  10.894   3.770 -1.3446  0.6255  0.1424
  243DOPC  H16S33480   0.599  10.985   3.611  0.5988 -0.8582 -1.1446
  243DOPC  C21733481   0.802  10.938   3.671  0.0385 -0.2862 -0.6620
  243DOPC  H17R33482   0.853  10.961   3.575  1.0813 -0.9309 -0.2738
  243DOPC  H17S33483   0.850  10.846   3.710  0.2502  0.3829  0.7052
  243DOPC  C21833484   0.839  11.052   3.763 -0.1884 -1.0290  0.8308
  243DOPC  H18R33485   0.948  11.073   3.771 -0.2897 -1.0728  2.7488
  243DOPC  H18S33486   0.795  11.043   3.865 -1.5292  0.7731  0.4564
  243DOPC  H18T33487   0.795  11.145   3.721 -0.2652 -1.4456 -0.0318
  243DOPC   C3333488   0.742   9.721   2.971 -0.3578 -0.4650  0.0690
  243DOPC   H3X33489   0.787   9.821   2.956  0.0258 -0.9976 -2.7633
  243DOPC   H3Y33490   0.816   9.644   3.000  0.4434  0.8554  1.6833
  243DOPC   C3433491   0.642   9.743   3.091 -0.1626 -0.4147  0.2795
  243DOPC   H4X33492   0.567   9.816   3.055  1.4812  1.2730  0.1694
  243DOPC   H4Y33493   0.698   9.780   3.179 -0.9776 -1.1639  1.1419
  243DOPC   C3533494   0.576   9.611   3.132  0.3316 -0.3001 -0.1169
  243DOPC   H5X33495   0.652   9.534   3.158 -0.3233 -0.4323  1.5210
  243DOPC   H5Y33496   0.526   9.570   3.042 -2.2400 -0.4669  1.2955
  243DOPC   C3633497   0.472   9.616   3.242  0.8613 -0.3496 -0.5144
  243DOPC   H6X33498   0.473   9.523   3.303 -1.5109  0.7585  1.4394
  243DOPC   H6Y33499   0.484   9.705   3.309  0.1358  0.0301 -0.8728
  243DOPC   C3733500   0.337   9.629   3.179  0.0511 -0.7991  0.1388
  243DOPC   H7X33501   0.335   9.715   3.109 -0.9247 -2.1551 -1.5759
  243DOPC   H7Y33502   0.321   9.539   3.116  1.0840 -1.1482  0.3499
  243DOPC   C3833503   0.216   9.651   3.286 -0.3130  0.4125 -0.0949
  243DOPC   H8X33504   0.132   9.705   3.237  0.5650 -0.5475 -2.8378
  243DOPC   H8Y33505   0.256   9.738   3.343 -2.0084  0.4553  1.1021
  243DOPC   C3933506   0.183   9.525   3.358 -0.0133 -0.1535  0.2672
  243DOPC   H9X33507   0.218   9.432   3.311 -3.4414 -1.1583 -0.6020
  243DOPC  C31033508   0.137   9.523   3.487  0.3025  0.5190 -0.2590
  243DOPC  H10X33509   0.115   9.425   3.531  1.1753  1.0500  1.4502
  243DOPC  C31133510   0.108   9.642   3.573  0.3695 -0.0892 -0.6247
  243DOPC  H11X33511   0.104   9.730   3.505  1.3272 -1.6667 -2.8250
  243DOPC  H11Y33512   0.179   9.665   3.656  0.8375  1.0511 -1.3200
  243DOPC  C31233513  -0.025   9.632   3.652  0.2800  0.2656 -0.4792
  243DOPC  H12X33514  -0.117   9.615   3.593 -0.9312 -0.6854  1.5963
  243DOPC  H12Y33515  -0.031   9.728   3.707 -0.9578  0.0045 -0.1288
  243DOPC  C31333516  -0.028   9.514   3.751 -0.4423 -0.4882 -0.3122
  243DOPC  H13X33517  -0.024   9.416   3.699  0.3026 -0.1973 -0.8214
  243DOPC  H13Y33518   0.068   9.519   3.807 -0.3510 -1.5969 -0.3428
  243DOPC  C31433519  -0.148   9.530   3.846 -0.3133  0.9965 -0.2150
  243DOPC  H14X33520  -0.154   9.636   3.881  0.1874  0.6253  1.0418
  243DOPC  H14Y33521  -0.246   9.506   3.801 -0.5215 -0.4279  0.9102
  243DOPC  C31533522  -0.141   9.449   3.979 -0.0711 -1.4672 -0.2862
  243DOPC  H15X33523  -0.061   9.494   4.042  2.3148 -3.3252 -1.7983
  243DOPC  H15Y33524  -0.123   9.341   3.961  0.6084 -1.5151  0.6580
  243DOPC  C31633525  -0.281   9.454   4.052  0.2213 -0.8923 -0.1035
  243DOPC  H16X33526  -0.320   9.557   4.035 -1.9975 -1.7220 -0.4420
  243DOPC  H16Y33527  -0.355   9.384   4.007  2.1025 -2.4075 -0.9437
  243DOPC  C31733528  -0.276   9.426   4.199  0.6927 -0.2586  0.1144
  243DOPC  H17X33529  -0.240   9.323   4.218  0.0635 -0.0931  2.6645
  243DOPC  H17Y33530  -0.200   9.488   4.250 -0.6878  0.4810  1.3745
  243DOPC  C31833531  -0.413   9.447   4.264  0.3263 -0.0841 -0.1444
  243DOPC  H18X33532  -0.407   9.438   4.374  0.1086  0.9535 -0.0316
  243DOPC  H18Y33533  -0.455   9.549   4.246  1.0048 -0.0775 -1.8802
  243DOPC  H18Z33534  -0.495   9.380   4.231  0.0598  0.5950 -0.9195
  244DOPC     N33535   7.619   3.551   2.339 -0.0092 -0.1932  0.1298
  244DOPC   C1233536   7.563   3.540   2.479 -0.6090  0.1772  0.9782
  244DOPC  H12A33537   7.561   3.438   2.512 -0.5499 -0.1383  0.0352
  244DOPC  H12B33538   7.460   3.565   2.460 -0.1595  0.4035 -1.5704
  244DOPC   C1333539   7.565   3.677   2.274  0.3121 -0.2350  0.1446
  244DOPC  H13A33540   7.467   3.707   2.309  1.2730  1.3320  1.6644
  244DOPC  H13B33541   7.627   3.761   2.303 -0.4315  0.0183  1.0600
  244DOPC  H13C33542   7.569   3.667   2.167 -0.7509  3.2915 -0.3659
  244DOPC   C1433543   7.581   3.427   2.260  0.0982 -0.3036 -0.2107
  244DOPC  H14A33544   7.632   3.340   2.298  1.9008 -0.1741 -2.1242
  244DOPC  H14B33545   7.473   3.422   2.258  0.0552  0.3259 -2.3264
  244DOPC  H14C33546   7.612   3.431   2.156  0.0048  0.8507 -0.2076
  244DOPC   C1533547   7.768   3.567   2.339  0.0207  0.3727  0.2643
  244DOPC  H15A33548   7.808   3.556   2.239 -0.3031 -3.9785  0.4397
  244DOPC  H15B33549   7.818   3.489   2.395  0.5077  0.1004 -0.5115
  244DOPC  H15C33550   7.799   3.666   2.369  0.4503  0.9757 -1.9656
  244DOPC   C1133551   7.631   3.626   2.586  0.3802 -0.3900  0.2087
  244DOPC  H11A33552   7.589   3.600   2.686  2.1933  1.6898  1.6017
  244DOPC  H11B33553   7.741   3.614   2.579  0.1855 -2.8213  0.4907
  244DOPC     P33554   7.451   3.817   2.604  0.4269 -0.0643 -0.4104
  244DOPC   O1333555   7.353   3.713   2.562  0.2913 -0.5698  0.2516
  244DOPC   O1433556   7.425   3.952   2.549  0.2793  0.3287  0.5119
  244DOPC   O1233557   7.596   3.761   2.565 -0.7199 -0.1022  0.1261
  244DOPC   O1133558   7.450   3.815   2.754 -0.5375  0.6968 -0.1193
  244DOPC    C133559   7.543   3.903   2.816 -0.4101  0.1360  0.2464
  244DOPC    HA33560   7.546   4.009   2.780 -0.6293  0.3580  0.8735
  244DOPC    HB33561   7.647   3.865   2.804 -1.0290 -1.4967 -0.2003
  244DOPC    C233562   7.484   3.913   2.959  0.1605 -0.7239  0.3678
  244DOPC    HS33563   7.561   3.961   3.023  1.4412 -1.1918 -0.7786
  244DOPC   O2133564   7.440   3.786   3.013  0.4116  0.1205  0.5420
  244DOPC   C2133565   7.536   3.710   3.070  0.5542 -0.8449 -0.6741
  244DOPC   O2233566   7.658   3.734   3.065  0.5215  0.0050  0.4581
  244DOPC   C2233567   7.471   3.592   3.141  0.0299 -0.3224  0.9298
  244DOPC   H2R33568   7.402   3.543   3.070 -0.0006  1.0847 -0.0583
  244DOPC   H2S33569   7.402   3.634   3.217  2.0197  1.8762  1.6676
  244DOPC    C333570   7.359   4.007   2.962  0.0754  0.1678 -0.3342
  244DOPC    HX33571   7.293   4.003   3.052 -0.5321 -0.6875 -0.8083
  244DOPC    HY33572   7.299   3.964   2.879  0.5980  1.7561 -1.5875
  244DOPC   O3133573   7.393   4.146   2.932  0.2087 -0.0164  0.2137
  244DOPC   C3133574   7.297   4.235   2.967  0.5685 -0.4953  0.0051
  244DOPC   O3233575   7.189   4.212   3.010  0.2490  0.4145  0.1079
  244DOPC   C3233576   7.350   4.379   2.940 -0.7051 -0.3163 -0.6690
  244DOPC   H2X33577   7.364   4.384   2.830  2.7352  1.4631 -0.3021
  244DOPC   H2Y33578   7.283   4.457   2.982 -0.7887  0.0571 -1.4746
  244DOPC   C2333579   7.566   3.489   3.209  0.1358 -0.2606 -0.0753
  244DOPC   H3R33580   7.643   3.456   3.136  0.3749 -0.3633  0.2208
  244DOPC   H3S33581   7.502   3.402   3.237  1.9891 -2.4406 -2.1681
  244DOPC   C2433582   7.637   3.549   3.329  0.3539  0.5410 -0.5814
  244DOPC   H4R33583   7.707   3.628   3.294 -2.2356  3.5231  0.4943
  244DOPC   H4S33584   7.699   3.469   3.375 -0.5270 -0.4003 -0.9778
  244DOPC   C2533585   7.544   3.587   3.449 -0.3401 -0.2299  0.0859
  244DOPC   H5R33586   7.470   3.664   3.420  2.6252  1.5150 -3.6187
  244DOPC   H5S33587   7.610   3.642   3.520 -1.4875 -1.0218  1.8465
  244DOPC   C2633588   7.491   3.459   3.526 -0.4031 -1.1457 -0.5405
  244DOPC   H6R33589   7.574   3.386   3.538  0.7010 -0.1090 -1.5983
  244DOPC   H6S33590   7.410   3.406   3.472 -0.5319 -0.2491 -1.2401
  244DOPC   C2733591   7.455   3.503   3.672  0.2501 -0.1800 -0.1329
  244DOPC   H7R33592   7.538   3.545   3.732 -0.4796 -0.0299  0.7774
  244DOPC   H7S33593   7.419   3.408   3.717  2.6068 -0.8730  0.4565
  244DOPC   C2833594   7.353   3.620   3.678 -0.1788  0.6456  0.0391
  244DOPC   H8R33595   7.263   3.579   3.627  0.4804 -1.4322  0.4297
  244DOPC   H8S33596   7.393   3.705   3.619  0.0587  0.0197 -0.7246
  244DOPC   C2933597   7.296   3.669   3.809  1.1784 -0.1107  0.0736
  244DOPC   H9R33598   7.209   3.616   3.850  0.5987  0.5736 -0.2721
  244DOPC  C21033599   7.330   3.779   3.879 -0.2588 -0.2776 -0.5581
  244DOPC  H10R33600   7.289   3.796   3.980 -1.8282  0.0192 -1.2170
  244DOPC  C21133601   7.447   3.859   3.846  0.6414 -0.9499  0.3070
  244DOPC  H11R33602   7.491   3.841   3.746 -1.1034  0.6084 -0.8033
  244DOPC  H11S33603   7.527   3.822   3.913 -0.7225 -0.5785  2.2358
  244DOPC  C21233604   7.428   4.011   3.865 -0.3063 -0.1129 -0.2281
  244DOPC  H12R33605   7.340   4.042   3.804 -0.4244 -0.2268 -0.1184
  244DOPC  H12S33606   7.514   4.071   3.830  0.5943  0.6878  2.9710
  244DOPC  C21333607   7.399   4.052   4.014 -0.0181  0.0935  0.3460
  244DOPC  H13R33608   7.481   3.993   4.060 -0.5490 -1.4702 -0.6350
  244DOPC  H13S33609   7.299   4.008   4.034 -0.0090  0.1951  0.6297
  244DOPC  C21433610   7.406   4.205   4.035 -0.3692 -0.1192 -0.1246
  244DOPC  H14R33611   7.346   4.263   3.961 -1.0490 -2.2598 -1.3112
  244DOPC  H14S33612   7.509   4.245   4.029 -0.2447 -0.1939  1.1557
  244DOPC  C21533613   7.354   4.260   4.169  0.0321 -0.9896 -0.8420
  244DOPC  H15R33614   7.377   4.196   4.257 -0.0064  0.0627 -0.0403
  244DOPC  H15S33615   7.243   4.260   4.176  0.1323 -0.8916  1.9762
  244DOPC  C21633616   7.415   4.397   4.196  0.2176  0.3863  0.4949
  244DOPC  H16R33617   7.526   4.395   4.194  0.2125 -1.4898 -0.9227
  244DOPC  H16S33618   7.392   4.408   4.305  1.5822  0.0552  0.8333
  244DOPC  C21733619   7.366   4.518   4.130 -0.1004  0.6624  0.0038
  244DOPC  H17R33620   7.256   4.514   4.142 -0.3253  0.3971 -1.9359
  244DOPC  H17S33621   7.402   4.505   4.026  2.9938 -1.1978  1.1566
  244DOPC  C21833622   7.426   4.644   4.185 -0.0932 -0.4148 -0.2959
  244DOPC  H18R33623   7.535   4.642   4.167 -0.1115 -0.8119 -0.3938
  244DOPC  H18S33624   7.397   4.647   4.292 -1.9825  0.9630 -0.7921
  244DOPC  H18T33625   7.382   4.731   4.132  1.2883  0.6080  0.2032
  244DOPC   C3333626   7.487   4.389   3.006 -0.1582  0.1053 -0.1261
  244DOPC   H3X33627   7.536   4.476   2.956 -0.5070  0.1385 -0.4144
  244DOPC   H3Y33628   7.550   4.298   2.992 -0.3395 -0.1707  0.8245
  244DOPC   C3433629   7.498   4.430   3.155 -0.1618 -0.1056  0.2451
  244DOPC   H4X33630   7.455   4.532   3.168 -1.3483 -0.5906  0.2427
  244DOPC   H4Y33631   7.606   4.421   3.177  0.7670  1.1725 -3.1044
  244DOPC   C3533632   7.422   4.344   3.251 -0.1202  0.1430  0.3017
  244DOPC   H5X33633   7.467   4.242   3.255  1.8148  0.9656  0.8967
  244DOPC   H5Y33634   7.315   4.354   3.223 -0.1878  2.0380  1.1063
  244DOPC   C3633635   7.436   4.406   3.393 -0.0019 -0.1116  0.0169
  244DOPC   H6X33636   7.543   4.427   3.417 -0.0688 -0.7198  0.8930
  244DOPC   H6Y33637   7.392   4.507   3.397  0.0732 -0.0506 -0.5667
  244DOPC   C3733638   7.377   4.328   3.515  0.1115  0.2484  0.0877
  244DOPC   H7X33639   7.268   4.311   3.502 -0.0393 -0.3380  1.9010
  244DOPC   H7Y33640   7.430   4.230   3.517  1.1507  0.7766  3.0633
  244DOPC   C3833641   7.392   4.395   3.656 -0.3634  0.1399  0.1806
  244DOPC   H8X33642   7.326   4.327   3.714 -1.3376  0.1177 -0.9222
  244DOPC   H8Y33643   7.344   4.495   3.661 -1.2760 -0.2764 -0.0768
  244DOPC   C3933644   7.531   4.386   3.710  0.2091  0.0326  0.0877
  244DOPC   H9X33645   7.592   4.299   3.681 -0.4626 -0.7766  0.9890
  244DOPC  C31033646   7.589   4.490   3.780 -0.3752  0.5785 -0.0994
  244DOPC  H10X33647   7.694   4.465   3.799 -0.3221  0.3518 -0.6853
  244DOPC  C31133648   7.540   4.627   3.822  0.1009 -0.0028  0.6882
  244DOPC  H11X33649   7.563   4.649   3.928  0.7381  1.1842  0.3085
  244DOPC  H11Y33650   7.429   4.628   3.814 -0.1406  0.9363  3.4161
  244DOPC  C31233651   7.606   4.745   3.734  0.4260  0.5791 -0.4006
  244DOPC  H12X33652   7.716   4.748   3.751 -0.0058  0.8043  2.9264
  244DOPC  H12Y33653   7.558   4.839   3.766 -1.4701 -1.0086  1.7272
  244DOPC  C31333654   7.582   4.716   3.588 -0.1545 -0.0996 -0.1251
  244DOPC  H13X33655   7.628   4.623   3.548  0.9657  0.1027  0.6164
  244DOPC  H13Y33656   7.473   4.696   3.579 -0.0859 -1.6997  1.8749
  244DOPC  C31433657   7.648   4.824   3.515 -0.2761  0.6921  0.5790
  244DOPC  H14X33658   7.597   4.920   3.540 -0.6647  1.3491 -2.3430
  244DOPC  H14Y33659   7.754   4.840   3.542 -0.1436 -0.2209  0.6137
  244DOPC  C31533660   7.631   4.828   3.360 -0.6942  0.2936 -0.1629
  244DOPC  H15X33661   7.679   4.925   3.334 -0.8586  0.5263  0.3712
  244DOPC  H15Y33662   7.526   4.843   3.327 -0.7194  1.6458  0.4133
  244DOPC  C31633663   7.697   4.713   3.287 -0.4166  0.1535 -0.5661
  244DOPC  H16X33664   7.805   4.713   3.311 -0.1525 -1.4122 -1.5950
  244DOPC  H16Y33665   7.654   4.613   3.308 -0.9008  0.2809 -0.9300
  244DOPC  C31733666   7.685   4.735   3.135 -0.7381 -0.1686 -0.1338
  244DOPC  H17X33667   7.727   4.646   3.084 -0.1036  0.2639 -0.3806
  244DOPC  H17Y33668   7.577   4.755   3.115 -0.3480  2.0912 -0.2312
  244DOPC  C31833669   7.750   4.856   3.068 -0.6754  0.4237  0.2354
  244DOPC  H18X33670   7.721   4.951   3.117 -0.6702  0.6955 -0.2829
  244DOPC  H18Y33671   7.861   4.848   3.066 -0.7638 -1.2900 -0.7600
  244DOPC  H18Z33672   7.723   4.855   2.960  0.8406 -1.4455 -0.1846
  245DOPC     N33673   3.010  11.821   1.943 -0.1064 -0.1656  0.0154
  245DOPC   C1233674   2.993  11.672   1.948  0.1301  0.0034  0.4059
  245DOPC  H12A33675   3.074  11.626   2.002  0.7945 -0.0712 -0.6309
  245DOPC  H12B33676   3.004  11.620   1.854 -0.6417  0.4617  0.0532
  245DOPC   C1333677   2.884  11.902   1.898 -0.3608 -0.2540  0.9301
  245DOPC  H13A33678   2.796  11.903   1.961 -0.5457 -0.8959  0.6917
  245DOPC  H13B33679   2.904  12.005   1.874 -1.0196 -0.4980 -0.8331
  245DOPC  H13C33680   2.859  11.859   1.802  3.2232 -0.4856 -0.0614
  245DOPC   C1433681   3.115  11.863   1.840 -0.2002 -0.0605  0.5964
  245DOPC  H14A33682   3.207  11.807   1.846 -0.0072  0.0914 -0.6807
  245DOPC  H14B33683   3.074  11.857   1.740 -0.3014  0.3546  0.6129
  245DOPC  H14C33684   3.160  11.960   1.853  0.4835 -0.0445 -1.4318
  245DOPC   C1533685   3.046  11.874   2.080  0.1259 -0.1325 -0.3858
  245DOPC  H15A33686   3.133  11.820   2.115 -0.3780 -0.5095  0.3320
  245DOPC  H15B33687   2.959  11.859   2.143  0.6006 -0.0987  0.2898
  245DOPC  H15C33688   3.057  11.981   2.087  0.3323 -0.2350  1.7295
  245DOPC   C1133689   2.860  11.629   2.014  0.2196  0.4238  0.3041
  245DOPC  H11A33690   2.776  11.674   1.957 -0.2955  0.4447  1.0697
  245DOPC  H11B33691   2.839  11.521   2.003 -2.1607  0.7233  1.2478
  245DOPC     P33692   2.906  11.579   2.267 -0.0084  0.1084 -0.1289
  245DOPC   O1333693   3.045  11.556   2.245 -0.0377  0.4044  0.6228
  245DOPC   O1433694   2.822  11.456   2.265 -0.2470 -0.2654 -0.2962
  245DOPC   O1233695   2.861  11.675   2.151 -0.3824  0.4234  0.1028
  245DOPC   O1133696   2.877  11.661   2.401  0.5921  0.4579 -0.0237
  245DOPC    C133697   2.920  11.797   2.409 -0.2369  0.0961 -0.4595
  245DOPC    HA33698   2.844  11.872   2.378  0.2995  1.0742  0.5175
  245DOPC    HB33699   3.017  11.817   2.358  1.4906 -0.1051  2.5202
  245DOPC    C233700   2.967  11.830   2.547 -0.3552 -0.0758 -0.3157
  245DOPC    HS33701   3.018  11.927   2.561  0.6647 -0.7356  0.6844
  245DOPC   O2133702   3.078  11.743   2.589  1.1565  0.0139  0.6373
  245DOPC   C2133703   3.197  11.780   2.563  0.1451 -0.2045 -0.1984
  245DOPC   O2233704   3.233  11.885   2.512  0.0379  0.3536  0.0910
  245DOPC   C2233705   3.286  11.674   2.622  0.1608  0.5936 -0.3991
  245DOPC   H2R33706   3.268  11.580   2.565  0.5671  0.2750 -0.0149
  245DOPC   H2S33707   3.246  11.644   2.722 -1.2912  3.1675 -0.1133
  245DOPC    C333708   2.850  11.835   2.656  0.0825  0.0307  0.2734
  245DOPC    HX33709   2.793  11.740   2.661  1.0916 -0.5422  3.1723
  245DOPC    HY33710   2.773  11.911   2.630 -1.9445 -1.8405  0.4312
  245DOPC   O3133711   2.908  11.866   2.786 -0.0494  0.3861 -0.4806
  245DOPC   C3133712   2.821  11.833   2.889  0.2955 -0.0364  0.0364
  245DOPC   O3233713   2.702  11.801   2.874 -0.1467 -0.8404  0.5412
  245DOPC   C3233714   2.889  11.861   3.021 -0.7015  0.1985 -0.0825
  245DOPC   H2X33715   2.945  11.768   3.043  0.1636  0.6241 -0.4253
  245DOPC   H2Y33716   2.970  11.935   3.005 -1.2459  1.2160  1.5922
  245DOPC   C2333717   3.438  11.706   2.628  0.4900 -0.2906  0.0693
  245DOPC   H3R33718   3.464  11.805   2.671  0.3920  0.7410 -2.1269
  245DOPC   H3S33719   3.473  11.698   2.523  0.3355  0.4201 -0.0451
  245DOPC   C2433720   3.517  11.614   2.724 -0.3841  0.2364  0.8270
  245DOPC   H4R33721   3.622  11.625   2.688 -0.8822 -3.7533 -2.7386
  245DOPC   H4S33722   3.488  11.511   2.695  1.0996 -0.3118  1.1903
  245DOPC   C2533723   3.503  11.642   2.872  0.6972 -0.6884 -0.1515
  245DOPC   H5R33724   3.397  11.650   2.905  1.3016 -1.6616  2.2514
  245DOPC   H5S33725   3.540  11.746   2.884 -0.5224 -0.3011  0.3352
  245DOPC   C2633726   3.578  11.547   2.961 -0.5245 -0.9145  0.4339
  245DOPC   H6R33727   3.685  11.542   2.929  0.4583 -0.1916  3.2945
  245DOPC   H6S33728   3.532  11.449   2.939 -1.2888 -0.3789 -0.4680
  245DOPC   C2733729   3.573  11.598   3.102  0.0894  0.7806 -0.5445
  245DOPC   H7R33730   3.473  11.626   3.141  0.5487  2.0366 -0.2154
  245DOPC   H7S33731   3.633  11.691   3.107  0.9309  0.4165 -2.8675
  245DOPC   C2833732   3.640  11.504   3.211 -0.0158  0.4346  0.0393
  245DOPC   H8R33733   3.643  11.564   3.304 -1.7909  0.4632  0.1155
  245DOPC   H8S33734   3.745  11.499   3.175 -0.1954 -1.1144 -0.3413
  245DOPC   C2933735   3.580  11.367   3.231 -0.3270  0.4409 -0.7150
  245DOPC   H9R33736   3.617  11.285   3.167 -2.6379 -0.7364 -0.6749
  245DOPC  C21033737   3.501  11.325   3.333  0.4129  0.1458  0.2251
  245DOPC  H10R33738   3.479  11.217   3.341 -1.5143  0.4337 -0.5805
  245DOPC  C21133739   3.452  11.409   3.451  0.2836 -0.0252 -0.2491
  245DOPC  H11R33740   3.349  11.389   3.487  1.3175 -1.5561  2.0508
  245DOPC  H11S33741   3.456  11.517   3.423  1.6972  0.4681  1.6503
  245DOPC  C21233742   3.547  11.390   3.568  0.4435 -0.5615 -0.3478
  245DOPC  H12R33743   3.650  11.408   3.531 -0.1083  0.7634 -1.2831
  245DOPC  H12S33744   3.544  11.284   3.602 -0.8360  0.1692  2.0096
  245DOPC  C21333745   3.519  11.488   3.683 -0.1868 -0.2572  0.2968
  245DOPC  H13R33746   3.431  11.461   3.746 -0.6758 -1.3679 -0.8113
  245DOPC  H13S33747   3.480  11.580   3.634  0.3714  0.3734  1.0203
  245DOPC  C21433748   3.643  11.518   3.766 -0.1267  0.2150  0.1451
  245DOPC  H14R33749   3.611  11.604   3.830 -2.0860 -0.0773 -0.3762
  245DOPC  H14S33750   3.720  11.541   3.689  0.6900 -2.1985  0.1676
  245DOPC  C21533751   3.680  11.389   3.840 -0.4368  0.3709  0.0084
  245DOPC  H15R33752   3.789  11.392   3.863 -0.7444 -0.0548  1.6819
  245DOPC  H15S33753   3.672  11.301   3.773  0.1540 -0.5630  1.1342
  245DOPC  C21633754   3.598  11.366   3.967 -0.4660 -0.2985  0.2418
  245DOPC  H16R33755   3.492  11.359   3.933 -0.9042  1.8125  1.0741
  245DOPC  H16S33756   3.597  11.458   4.029  0.9792 -0.3408  0.3501
  245DOPC  C21733757   3.629  11.227   4.028 -0.6699  0.0750  0.4138
  245DOPC  H17R33758   3.724  11.229   4.088 -0.0371 -0.8376 -0.5294
  245DOPC  H17S33759   3.660  11.156   3.949 -0.6610  1.7963 -1.1855
  245DOPC  C21833760   3.504  11.168   4.100 -0.0965  0.2129  0.0081
  245DOPC  H18R33761   3.420  11.152   4.030 -1.0642  1.3856  0.8349
  245DOPC  H18S33762   3.468  11.250   4.167 -0.5342 -0.0898  0.1496
  245DOPC  H18T33763   3.524  11.079   4.163  2.8906 -0.8088 -2.2055
  245DOPC   C3333764   2.796  11.887   3.145 -0.2829  0.1612 -0.2408
  245DOPC   H3X33765   2.722  11.805   3.151  1.9835 -2.0056 -0.3055
  245DOPC   H3Y33766   2.739  11.982   3.133 -2.6616 -1.2584 -0.7145
  245DOPC   C3433767   2.880  11.888   3.276  0.3820  0.3288  0.0977
  245DOPC   H4X33768   2.965  11.957   3.258  0.3777  0.2433 -0.2635
  245DOPC   H4Y33769   2.922  11.786   3.294  1.8515  0.5129 -1.9387
  245DOPC   C3533770   2.803  11.919   3.410  0.0718 -0.3632  0.5436
  245DOPC   H5X33771   2.731  11.839   3.438 -0.6094 -0.7090 -1.9661
  245DOPC   H5Y33772   2.736  12.006   3.395  0.5987 -0.1067 -0.4654
  245DOPC   C3633773   2.894  11.961   3.526 -0.4394 -0.0092 -0.1095
  245DOPC   H6X33774   2.945  11.872   3.569  0.9425  0.0507 -1.5498
  245DOPC   H6Y33775   2.965  12.039   3.494 -1.1616  0.8730  0.3856
  245DOPC   C3733776   2.812  12.035   3.636  0.5128  0.0805  0.8329
  245DOPC   H7X33777   2.886  12.110   3.672  0.2603  0.2492  1.0069
  245DOPC   H7Y33778   2.731  12.089   3.582  0.6073 -0.2095  0.4041
  245DOPC   C3833779   2.755  11.942   3.751 -0.7597  0.1297  0.3661
  245DOPC   H8X33780   2.701  11.849   3.723 -0.5263 -0.0465  0.4925
  245DOPC   H8Y33781   2.687  12.007   3.810  0.1542 -0.3937  2.0564
  245DOPC   C3933782   2.879  11.905   3.836 -0.3750  0.0060  0.1492
  245DOPC   H9X33783   2.931  11.813   3.807  0.5428  0.3583  0.6311
  245DOPC  C31033784   2.915  11.950   3.952 -0.2766  0.1786  0.2122
  245DOPC  H10X33785   2.983  11.888   4.011 -0.6295  0.3129  0.7663
  245DOPC  C31133786   2.856  12.067   4.023  0.0874 -0.1370  0.1500
  245DOPC  H11X33787   2.819  12.027   4.119 -0.3759  1.0051  0.4566
  245DOPC  H11Y33788   2.775  12.112   3.961  0.2335  1.4988  1.1042
  245DOPC  C31233789   2.944  12.188   4.057  0.5778 -0.0398 -0.1790
  245DOPC  H12X33790   2.894  12.278   4.099  0.1135  0.8578 -2.5291
  245DOPC  H12Y33791   2.970  12.229   3.958  1.7029  1.2722  0.6398
  245DOPC  C31333792   3.058  12.163   4.157  0.7645  0.1226  0.6200
  245DOPC  H13X33793   3.119  12.081   4.115  2.7373  2.2656 -0.9781
  245DOPC  H13Y33794   3.129  12.249   4.162 -1.2534  1.7910  3.1255
  245DOPC  C31433795   3.015  12.138   4.307  0.1565  0.1302  0.6796
  245DOPC  H14X33796   2.928  12.196   4.344 -1.3702  0.4999 -3.0427
  245DOPC  H14Y33797   2.982  12.032   4.319 -0.5657  0.2926  0.2394
  245DOPC  C31533798   3.132  12.175   4.396 -0.3524 -0.3731 -0.2083
  245DOPC  H15X33799   3.170  12.279   4.395  0.9291 -0.7948  0.6851
  245DOPC  H15Y33800   3.223  12.114   4.377 -1.0084 -1.8052  1.0425
  245DOPC  C31633801   3.090  12.153   4.545  0.4811 -0.0241 -0.4036
  245DOPC  H16X33802   2.998  12.210   4.568  0.3291 -0.5805  0.4043
  245DOPC  H16Y33803   3.082  12.044   4.566 -1.9223  0.6553  3.1995
  245DOPC  C31733804   3.190  12.206   4.646  0.2150 -0.3774  0.2052
  245DOPC  H17X33805   3.288  12.164   4.617  0.5266  1.9479 -2.5816
  245DOPC  H17Y33806   3.198  12.317   4.649 -1.2604 -0.1365 -2.1564
  245DOPC  C31833807   3.161  12.163   4.796  0.1742  0.6562  0.4288
  245DOPC  H18X33808   3.127  12.057   4.794 -1.2910  1.1176 -0.2247
  245DOPC  H18Y33809   3.256  12.162   4.854 -0.1646 -1.2939  1.0300
  245DOPC  H18Z33810   3.089  12.221   4.857 -0.3985 -0.5459  0.9380
  246DOPC     N33811   3.816   1.704   1.901  0.7547 -0.4725 -0.3869
  246DOPC   C1233812   3.878   1.626   2.014  0.1712  0.5426 -0.1748
  246DOPC  H12A33813   3.834   1.528   2.010  1.7478 -0.1614 -1.3801
  246DOPC  H12B33814   3.867   1.661   2.115 -0.1737  1.7206 -0.6060
  246DOPC   C1333815   3.865   1.850   1.901 -0.5820  0.3781  0.0464
  246DOPC  H13A33816   3.841   1.895   1.997 -1.4064  0.2590 -0.0940
  246DOPC  H13B33817   3.972   1.844   1.907 -0.5986 -0.0872 -0.1040
  246DOPC  H13C33818   3.820   1.913   1.826  1.9796  2.2632 -0.0361
  246DOPC   C1433819   3.665   1.711   1.932  0.3828 -0.7929  0.8866
  246DOPC  H14A33820   3.622   1.796   1.882  0.4787 -1.3803 -0.2455
  246DOPC  H14B33821   3.623   1.622   1.886  1.0222  0.2419 -1.8987
  246DOPC  H14C33822   3.639   1.716   2.036 -1.2263  0.3417  0.4699
  246DOPC   C1533823   3.839   1.651   1.762  0.1840  0.1134 -0.0679
  246DOPC  H15A33824   3.805   1.549   1.753 -0.9044  0.4052  0.5634
  246DOPC  H15B33825   3.945   1.652   1.744  0.1209 -0.5382 -0.5168
  246DOPC  H15C33826   3.794   1.711   1.684  0.6544  0.6888  0.0923
  246DOPC   C1133827   4.033   1.596   2.004 -0.7756 -0.3477 -0.2904
  246DOPC  H11A33828   4.070   1.532   2.087  0.6519 -0.1003 -0.7064
  246DOPC  H11B33829   4.049   1.526   1.918  1.9294  0.9172 -0.8972
  246DOPC     P33830   4.211   1.754   2.099 -0.1148  0.0587  0.6755
  246DOPC   O1333831   4.251   1.892   2.070  1.1536  0.0227  0.0733
  246DOPC   O1433832   4.314   1.649   2.119 -0.5119 -0.4020  0.0161
  246DOPC   O1233833   4.120   1.703   1.982 -0.0261  0.0551 -0.1494
  246DOPC   O1133834   4.103   1.767   2.215 -0.1942  0.1024  0.2870
  246DOPC    C133835   4.136   1.823   2.338  0.1403 -0.8490  1.1590
  246DOPC    HA33836   4.083   1.920   2.348 -0.9884 -1.1725 -1.1017
  246DOPC    HB33837   4.242   1.856   2.352  0.1982 -0.5826  0.2027
  246DOPC    C233838   4.092   1.735   2.452 -0.2577  0.7904  0.4463
  246DOPC    HS33839   4.156   1.645   2.441 -0.0013  0.8675  1.2559
  246DOPC   O2133840   3.948   1.708   2.434  0.2318  0.4975  0.7520
  246DOPC   C2133841   3.922   1.584   2.424 -0.4360 -0.0337  0.0441
  246DOPC   O2233842   4.009   1.496   2.425 -0.0048 -0.1044  0.1422
  246DOPC   C2233843   3.774   1.561   2.404  0.0028 -0.8229  0.5738
  246DOPC   H2R33844   3.761   1.587   2.297  1.0241  1.5626  0.9789
  246DOPC   H2S33845   3.719   1.632   2.469  0.4005 -0.5061  0.5675
  246DOPC    C333846   4.123   1.792   2.591  0.4067 -0.1791  0.6960
  246DOPC    HX33847   4.233   1.797   2.607  0.5098 -0.2312  0.0337
  246DOPC    HY33848   4.080   1.727   2.670  0.3718  0.3597  1.1204
  246DOPC   O3133849   4.063   1.922   2.602  0.2354 -0.2777 -0.4332
  246DOPC   C3133850   4.140   2.024   2.576  0.6096  0.0945 -0.0996
  246DOPC   O3233851   4.249   2.027   2.526  0.0300  0.4401 -0.0672
  246DOPC   C3233852   4.066   2.154   2.625 -0.2592  0.2685  0.0626
  246DOPC   H2X33853   4.031   2.199   2.529 -1.5211  0.1104  0.4321
  246DOPC   H2Y33854   3.969   2.125   2.670  0.3799 -0.9263  0.7070
  246DOPC   C2333855   3.739   1.408   2.428 -0.2810 -0.1538  0.2921
  246DOPC   H3R33856   3.763   1.346   2.339 -0.4562 -1.0203  0.8363
  246DOPC   H3S33857   3.629   1.423   2.428 -0.0104  2.8128 -1.7451
  246DOPC   C2433858   3.771   1.336   2.558  0.0992 -0.3275  0.9860
  246DOPC   H4R33859   3.879   1.317   2.575 -0.1780 -3.0910  0.1342
  246DOPC   H4S33860   3.729   1.233   2.561  1.1331 -0.7765  0.3702
  246DOPC   C2533861   3.709   1.410   2.677 -0.7672 -0.2275 -0.9236
  246DOPC   H5R33862   3.607   1.451   2.659  0.1292  2.7743  0.1083
  246DOPC   H5S33863   3.771   1.500   2.699 -0.4116 -0.4389 -1.0448
  246DOPC   C2633864   3.705   1.331   2.813 -0.0620  0.2089 -0.0689
  246DOPC   H6R33865   3.798   1.275   2.836  0.5713  2.0273  2.2489
  246DOPC   H6S33866   3.630   1.250   2.802  0.1581  0.2554 -2.3923
  246DOPC   C2733867   3.669   1.427   2.930 -0.0108  0.2885 -0.3568
  246DOPC   H7R33868   3.568   1.471   2.916 -0.4359 -0.5094  0.1379
  246DOPC   H7S33869   3.740   1.513   2.926 -0.0049  0.4345  1.7919
  246DOPC   C2833870   3.678   1.353   3.069  0.7171 -0.6287 -0.3332
  246DOPC   H8R33871   3.784   1.342   3.103  0.9509 -2.2789 -1.4907
  246DOPC   H8S33872   3.634   1.252   3.058 -1.1271  0.0949  0.0740
  246DOPC   C2933873   3.607   1.444   3.173 -0.1077 -0.1669 -0.0352
  246DOPC   H9R33874   3.561   1.542   3.151 -0.9944  0.1440  2.8256
  246DOPC  C21033875   3.583   1.389   3.292  0.2445  0.0458 -0.3250
  246DOPC  H10R33876   3.524   1.449   3.362 -0.3569 -0.0976 -0.7050
  246DOPC  C21133877   3.627   1.254   3.331 -0.5507 -0.3980  0.6727
  246DOPC  H11R33878   3.722   1.225   3.281 -1.5319 -1.4260 -0.6749
  246DOPC  H11S33879   3.547   1.178   3.317  0.1276 -1.3227  1.6658
  246DOPC  C21233880   3.657   1.252   3.477  0.0785 -0.3728  0.6367
  246DOPC  H12R33881   3.725   1.334   3.510  0.7264 -1.6864  2.7249
  246DOPC  H12S33882   3.708   1.156   3.495  0.1057 -0.6700 -0.9162
  246DOPC  C21333883   3.528   1.261   3.571  0.5253  0.5916 -0.0892
  246DOPC  H13R33884   3.442   1.216   3.516 -0.0455  0.5626  0.8023
  246DOPC  H13S33885   3.502   1.368   3.589 -0.6444  0.3336 -0.1260
  246DOPC  C21433886   3.531   1.190   3.705 -0.2434 -0.5732 -0.4753
  246DOPC  H14R33887   3.581   1.091   3.696  3.5038  1.0241  0.9278
  246DOPC  H14S33888   3.425   1.181   3.734  0.3434 -0.6894  1.7896
  246DOPC  C21533889   3.593   1.276   3.820 -0.2699 -0.1829  0.1736
  246DOPC  H15R33890   3.547   1.378   3.822 -0.6990 -0.3491 -0.8604
  246DOPC  H15S33891   3.703   1.281   3.807 -0.1810  1.8714  1.2480
  246DOPC  C21633892   3.552   1.219   3.956  0.5450 -0.1684 -0.8179
  246DOPC  H16R33893   3.604   1.273   4.037 -0.0578 -0.2509 -0.3698
  246DOPC  H16S33894   3.578   1.111   3.964 -0.3369 -0.2842  0.9342
  246DOPC  C21733895   3.402   1.239   3.998  0.2384  0.0125  0.2824
  246DOPC  H17R33896   3.329   1.189   3.929 -1.9134 -0.9408  3.0385
  246DOPC  H17S33897   3.386   1.348   3.993 -1.9355 -0.2913 -1.4428
  246DOPC  C21833898   3.368   1.175   4.130  0.4649  0.1200  0.6524
  246DOPC  H18R33899   3.394   1.068   4.123 -1.8562 -0.4419 -1.0362
  246DOPC  H18S33900   3.260   1.186   4.156  0.6533  0.6681  1.2326
  246DOPC  H18T33901   3.415   1.225   4.217 -0.7203  2.0928  0.2487
  246DOPC   C3333902   4.140   2.251   2.726 -0.0955  0.5993  0.0054
  246DOPC   H3X33903   4.080   2.344   2.738  1.3908  1.3798  1.8156
  246DOPC   H3Y33904   4.232   2.286   2.674 -0.5009 -0.0767 -1.2056
  246DOPC   C3433905   4.165   2.196   2.866  0.0792 -0.4698  0.2080
  246DOPC   H4X33906   4.062   2.174   2.899 -0.2952 -0.2194 -0.7668
  246DOPC   H4Y33907   4.207   2.280   2.925 -0.2252 -1.3978  1.8036
  246DOPC   C3533908   4.247   2.064   2.877  0.1727  0.2517  0.0295
  246DOPC   H5X33909   4.345   2.075   2.825  0.1458 -0.7809 -0.2753
  246DOPC   H5Y33910   4.194   1.980   2.826  0.5912 -0.0347  0.0541
  246DOPC   C3633911   4.269   2.039   3.022  0.2710  0.8388  0.3115
  246DOPC   H6X33912   4.279   2.138   3.071 -2.0405  0.9187  0.7457
  246DOPC   H6Y33913   4.172   2.000   3.059  0.8070 -0.5377  0.2939
  246DOPC   C3733914   4.401   1.978   3.062  0.2860 -0.1180 -0.0904
  246DOPC   H7X33915   4.402   1.886   3.000 -2.4835 -1.1614  1.2193
  246DOPC   H7Y33916   4.479   2.053   3.037  0.3366  0.6685  2.2085
  246DOPC   C3833917   4.405   1.931   3.213  0.1176  0.7192 -0.0448
  246DOPC   H8X33918   4.485   1.854   3.224 -2.1242 -1.4358  3.1237
  246DOPC   H8Y33919   4.313   1.874   3.237  0.0855  1.1893  1.0204
  246DOPC   C3933920   4.419   2.031   3.324  0.3634 -0.0786  0.5339
  246DOPC   H9X33921   4.322   2.065   3.363 -0.0688 -1.7681  1.0086
  246DOPC  C31033922   4.530   2.074   3.377  0.1713  0.3370 -0.1895
  246DOPC  H10X33923   4.518   2.157   3.448 -1.7637 -0.9259  1.0480
  246DOPC  C31133924   4.672   2.034   3.350  0.0399  0.0517 -0.4183
  246DOPC  H11X33925   4.715   2.123   3.301  3.7032  0.2687  2.6897
  246DOPC  H11Y33926   4.682   1.938   3.295  3.2895  0.0583 -0.0461
  246DOPC  C31233927   4.755   2.027   3.482 -0.3166  0.5403 -0.8022
  246DOPC  H12X33928   4.734   2.109   3.553 -2.4554 -0.1797 -0.5217
  246DOPC  H12Y33929   4.866   2.031   3.470 -0.1821 -0.5112 -0.1154
  246DOPC  C31333930   4.735   1.895   3.553 -0.3819  0.4323 -1.1741
  246DOPC  H13X33931   4.630   1.875   3.584  0.0374  0.1391  0.0750
  246DOPC  H13Y33932   4.767   1.810   3.489  0.3775  0.0173 -0.2592
  246DOPC  C31433933   4.827   1.866   3.675 -0.3974 -0.1032  0.1639
  246DOPC  H14X33934   4.933   1.893   3.654 -0.3017 -0.8434 -0.3215
  246DOPC  H14Y33935   4.793   1.927   3.761  1.2510  2.6025 -0.9679
  246DOPC  C31533936   4.810   1.716   3.725 -0.0504 -0.4854 -0.2350
  246DOPC  H15X33937   4.779   1.658   3.636 -1.1128 -2.0906  1.1148
  246DOPC  H15Y33938   4.738   1.716   3.809  1.5260  2.0230  1.2629
  246DOPC  C31633939   4.941   1.661   3.788 -0.4918 -0.6299  0.5001
  246DOPC  H16X33940   4.927   1.551   3.790 -1.0389 -0.6554 -1.6772
  246DOPC  H16Y33941   5.017   1.686   3.710 -0.9901  1.2523  0.5654
  246DOPC  C31733942   4.971   1.726   3.922 -0.5207 -0.0868 -0.2276
  246DOPC  H17X33943   4.992   1.831   3.892 -2.2696  0.5178  0.5347
  246DOPC  H17Y33944   4.893   1.724   4.001  0.9695 -1.8645  1.3033
  246DOPC  C31833945   5.098   1.683   3.998  0.1581  0.2510 -0.0905
  246DOPC  H18X33946   5.091   1.579   4.037  0.2570  0.5030  0.6254
  246DOPC  H18Y33947   5.125   1.749   4.084 -0.8643 -0.4745  0.8227
  246DOPC  H18Z33948   5.189   1.691   3.935 -1.5086 -0.8409 -2.8263
  247DOPC     N33949   4.168   3.894   1.774 -0.2983 -0.2043 -0.3846
  247DOPC   C1233950   4.084   4.012   1.817 -0.1661  1.4238  0.9081
  247DOPC  H12A33951   4.100   4.036   1.921  2.7452  1.2256  0.5888
  247DOPC  H12B33952   3.985   3.970   1.833  1.0435 -2.4004 -0.6865
  247DOPC   C1333953   4.120   3.850   1.637  0.2030 -0.8559 -0.6889
  247DOPC  H13A33954   4.017   3.818   1.632  0.1612 -0.6319 -1.3351
  247DOPC  H13B33955   4.112   3.940   1.578 -1.5615  0.6346  1.6355
  247DOPC  H13C33956   4.179   3.770   1.594  0.4545 -1.2807  0.4117
  247DOPC   C1433957   4.146   3.782   1.868 -0.1612 -0.5069  0.3263
  247DOPC  H14A33958   4.202   3.799   1.958 -1.4280 -2.6225  1.6184
  247DOPC  H14B33959   4.043   3.774   1.901 -0.6774  1.4274 -0.6331
  247DOPC  H14C33960   4.182   3.686   1.833 -1.3019 -1.3394  1.3175
  247DOPC   C1533961   4.309   3.949   1.767  0.1280 -0.3772  0.0330
  247DOPC  H15A33962   4.321   4.027   1.694  0.9130  0.7437  1.3208
  247DOPC  H15B33963   4.375   3.868   1.740 -2.6504 -2.1511 -1.9946
  247DOPC  H15C33964   4.339   3.996   1.860  0.7062  1.1872 -0.9163
  247DOPC   C1133965   4.071   4.143   1.730  0.2067  0.1204  0.5324
  247DOPC  H11A33966   3.988   4.137   1.657  0.3097 -1.4561  0.5087
  247DOPC  H11B33967   4.030   4.220   1.799 -0.1547  0.8431 -0.4748
  247DOPC     P33968   4.203   4.336   1.621  0.0785  0.1383  0.5621
  247DOPC   O1333969   4.086   4.368   1.534  0.1245 -0.0513  0.3480
  247DOPC   O1433970   4.343   4.355   1.568 -0.6372  0.0996 -0.0408
  247DOPC   O1233971   4.191   4.182   1.663  0.1748 -0.2505  0.4763
  247DOPC   O1133972   4.186   4.423   1.751 -0.1195  0.2265  0.1700
  247DOPC    C133973   4.301   4.438   1.846  0.7811 -0.3444  0.3293
  247DOPC    HA33974   4.283   4.535   1.898  1.7731  0.7124 -1.2247
  247DOPC    HB33975   4.395   4.444   1.788 -0.3432 -2.1669 -1.8614
  247DOPC    C233976   4.310   4.326   1.952  1.5109  0.3604 -0.5697
  247DOPC    HS33977   4.295   4.228   1.903 -2.5030  0.2964  0.4356
  247DOPC   O2133978   4.200   4.344   2.040  0.5219  0.1463 -0.2094
  247DOPC   C2133979   4.148   4.244   2.108 -0.2493  0.0981 -0.3865
  247DOPC   O2233980   4.169   4.126   2.093 -0.6813  0.0679  0.1277
  247DOPC   C2233981   4.045   4.306   2.200 -0.2564  1.0309 -0.0578
  247DOPC   H2R33982   3.959   4.331   2.134  1.1756  1.3589 -1.8724
  247DOPC   H2S33983   4.084   4.400   2.243  0.0742  2.8680 -3.9806
  247DOPC    C333984   4.447   4.339   2.028 -0.5341 -0.0647 -0.3991
  247DOPC    HX33985   4.454   4.441   2.071  2.4621 -0.8042  1.1290
  247DOPC    HY33986   4.534   4.334   1.959  1.1979 -2.3140  1.7922
  247DOPC   O3133987   4.465   4.245   2.138  0.0299  0.0679 -0.5966
  247DOPC   C3133988   4.490   4.122   2.094 -0.0595  0.2674  0.7223
  247DOPC   O3233989   4.480   4.088   1.976 -0.1852 -0.0310 -0.4415
  247DOPC   C3233990   4.534   4.036   2.211  0.2363 -0.0360 -0.3983
  247DOPC   H2X33991   4.468   3.947   2.205 -1.3055  1.0407 -0.1914
  247DOPC   H2Y33992   4.637   3.996   2.203 -0.1797 -2.3076  3.1453
  247DOPC   C2333993   3.980   4.202   2.305  0.8335 -0.0858 -0.6903
  247DOPC   H3R33994   3.954   4.107   2.254  0.8752 -1.5186  1.8220
  247DOPC   H3S33995   3.898   4.271   2.336  1.5244  0.4331  0.0470
  247DOPC   C2433996   4.068   4.180   2.429  0.1749  0.3413 -0.3076
  247DOPC   H4R33997   4.081   4.277   2.481 -0.5202  0.0420  0.4390
  247DOPC   H4S33998   4.170   4.142   2.408  0.7042  1.2676  0.5268
  247DOPC   C2533999   4.003   4.094   2.541  0.2220  0.1346 -0.7046
  247DOPC   H5R34000   3.996   3.994   2.495  0.6587  0.3727 -1.3062
  247DOPC   H5S34001   3.898   4.130   2.549 -0.0969 -0.2084 -2.7143
  247DOPC   C2634002   4.076   4.090   2.682  0.6683  0.0904  0.2585
  247DOPC   H6R34003   4.023   4.031   2.759  1.4785  1.4869  1.9466
  247DOPC   H6S34004   4.075   4.198   2.708  1.6720  0.9943 -2.9869
  247DOPC   C2734005   4.225   4.044   2.669  0.4155  0.7941 -0.0342
  247DOPC   H7R34006   4.287   4.110   2.605  0.0142 -0.3219 -1.6315
  247DOPC   H7S34007   4.213   3.946   2.618 -1.1261  1.1322 -0.3758
  247DOPC   C2834008   4.306   4.024   2.799 -0.4022  0.3561 -0.3822
  247DOPC   H8R34009   4.335   4.121   2.845 -2.8200  1.2192 -0.5403
  247DOPC   H8S34010   4.400   3.974   2.767 -1.1414 -1.6840  0.4516
  247DOPC   C2934011   4.239   3.938   2.906 -0.0187 -0.8454  0.1321
  247DOPC   H9R34012   4.214   3.836   2.874 -1.1356 -1.0787  1.6386
  247DOPC  C21034013   4.175   3.972   3.021  0.7405 -0.9054 -0.1531
  247DOPC  H10R34014   4.124   3.899   3.085 -0.8295  0.0605 -0.2398
  247DOPC  C21134015   4.184   4.109   3.081  0.2425  0.2459  0.5586
  247DOPC  H11R34016   4.199   4.184   3.001  0.6727 -1.0874 -0.6421
  247DOPC  H11S34017   4.266   4.122   3.156  0.5899 -0.0682  0.2359
  247DOPC  C21234018   4.045   4.150   3.143  0.0521 -0.0581 -0.3158
  247DOPC  H12R34019   3.967   4.159   3.065 -1.0870  2.6114  0.9672
  247DOPC  H12S34020   4.058   4.257   3.172  1.7049  0.0763 -1.4321
  247DOPC  C21334021   4.021   4.062   3.270 -0.0826 -0.3192 -0.7215
  247DOPC  H13R34022   4.124   4.062   3.311 -0.2879  0.0995 -0.1967
  247DOPC  H13S34023   3.994   3.957   3.245  0.2915 -0.8066  0.8439
  247DOPC  C21434024   3.918   4.123   3.357  0.6001  0.4941 -0.6783
  247DOPC  H14R34025   3.887   4.053   3.437 -1.3458  2.0938  0.0513
  247DOPC  H14S34026   3.818   4.143   3.314  0.0099 -1.4180 -0.2900
  247DOPC  C21534027   3.965   4.246   3.428 -0.0855 -0.5280 -0.1682
  247DOPC  H15R34028   3.944   4.334   3.365 -2.2076 -1.0958 -0.3310
  247DOPC  H15S34029   4.075   4.235   3.424 -0.2443 -1.9188 -2.3898
  247DOPC  C21634030   3.920   4.273   3.574 -0.2563  0.3507 -0.5201
  247DOPC  H16R34031   3.962   4.200   3.646 -2.2351 -0.7471 -0.3975
  247DOPC  H16S34032   3.814   4.241   3.580  0.4645 -2.5508 -1.3629
  247DOPC  C21734033   3.945   4.411   3.632  0.1872 -0.2801 -0.0801
  247DOPC  H17R34034   3.887   4.488   3.577 -0.0655 -0.3201  0.1281
  247DOPC  H17S34035   4.052   4.438   3.616 -0.5329  1.3902 -2.5198
  247DOPC  C21834036   3.903   4.429   3.781  0.4345  0.1131 -0.3416
  247DOPC  H18R34037   3.795   4.454   3.784  0.0734 -1.4252  2.3646
  247DOPC  H18S34038   3.952   4.514   3.832 -1.5653  0.8003  0.5327
  247DOPC  H18T34039   3.918   4.333   3.834  0.6615 -0.6025 -1.6401
  247DOPC   C3334040   4.529   4.095   2.357  0.5507 -0.5853 -0.2801
  247DOPC   H3X34041   4.421   4.114   2.376  0.3216 -1.0803 -1.0488
  247DOPC   H3Y34042   4.594   4.184   2.370  0.6540 -0.7126  0.0817
  247DOPC   C3434043   4.583   3.998   2.467  0.1032  0.0012  0.5526
  247DOPC   H4X34044   4.564   4.044   2.567  1.7746 -0.4031  1.0836
  247DOPC   H4Y34045   4.689   3.971   2.450  0.0260 -1.6117  2.3454
  247DOPC   C3534046   4.525   3.852   2.463  0.4113 -0.0659 -0.4242
  247DOPC   H5X34047   4.524   3.803   2.363  2.5952 -0.7808 -0.1533
  247DOPC   H5Y34048   4.416   3.854   2.484  0.3074  0.4156 -0.9693
  247DOPC   C3634049   4.595   3.761   2.561 -0.0496  0.1031  0.4677
  247DOPC   H6X34050   4.694   3.753   2.511 -0.8124  2.4362 -1.6490
  247DOPC   H6Y34051   4.612   3.818   2.655  0.5675  1.4674 -0.4376
  247DOPC   C3734052   4.527   3.628   2.583  0.1959 -0.7975 -0.5985
  247DOPC   H7X34053   4.482   3.604   2.485 -1.3137  2.5595 -0.8487
  247DOPC   H7Y34054   4.604   3.554   2.614  1.2671  1.1601  1.7869
  247DOPC   C3834055   4.399   3.636   2.674 -0.3450 -0.1959  0.7592
  247DOPC   H8X34056   4.339   3.725   2.646 -1.0160 -0.7874  0.2993
  247DOPC   H8Y34057   4.432   3.662   2.777  1.3685 -0.2838  0.2656
  247DOPC   C3934058   4.320   3.513   2.679  0.0425 -0.2315  0.9678
  247DOPC   H9X34059   4.330   3.447   2.592 -2.6193  0.0883  0.3325
  247DOPC  C31034060   4.246   3.465   2.788  0.4608 -0.0886  0.1328
  247DOPC  H10X34061   4.189   3.371   2.776  0.7272 -0.2617  0.2100
  247DOPC  C31134062   4.214   3.534   2.915 -1.1066  0.0302 -0.0349
  247DOPC  H11X34063   4.105   3.554   2.904 -1.3466 -0.5964  1.1119
  247DOPC  H11Y34064   4.282   3.621   2.929  1.1582 -1.9007  1.6703
  247DOPC  C31234065   4.234   3.448   3.037 -0.5943  0.1972 -0.7498
  247DOPC  H12X34066   4.338   3.412   3.054 -1.5094 -3.3705 -1.8484
  247DOPC  H12Y34067   4.178   3.356   3.010  0.6498 -1.7147  2.5312
  247DOPC  C31334068   4.183   3.511   3.166  0.8431 -0.2058 -0.3005
  247DOPC  H13X34069   4.237   3.606   3.188  0.2526 -0.0322  0.4108
  247DOPC  H13Y34070   4.076   3.528   3.146  0.7048 -1.7290 -1.0072
  247DOPC  C31434071   4.215   3.433   3.293  0.5005  0.9546 -0.5032
  247DOPC  H14X34072   4.194   3.324   3.278  0.5233  0.7392  0.9185
  247DOPC  H14Y34073   4.324   3.435   3.314  0.7052 -0.7001 -1.2073
  247DOPC  C31534074   4.141   3.490   3.416  0.0220 -0.0595  0.4853
  247DOPC  H15X34075   4.035   3.509   3.390  0.1702  0.3270  0.1512
  247DOPC  H15Y34076   4.186   3.588   3.445  0.9363 -0.6109  0.9972
  247DOPC  C31634077   4.126   3.383   3.529 -0.0048  0.1498  0.0903
  247DOPC  H16X34078   4.063   3.298   3.495 -0.9359  1.0483 -0.4901
  247DOPC  H16Y34079   4.228   3.340   3.536 -0.5462 -1.5742 -1.6597
  247DOPC  C31734080   4.054   3.439   3.653 -0.6073 -0.5458  0.1543
  247DOPC  H17X34081   4.048   3.361   3.732  1.1266  0.9667  1.8738
  247DOPC  H17Y34082   4.125   3.508   3.702 -2.0323  0.8682  0.3104
  247DOPC  C31834083   3.914   3.500   3.641 -0.5349  0.0572 -0.6511
  247DOPC  H18X34084   3.908   3.593   3.579 -0.4084  1.5086  1.4124
  247DOPC  H18Y34085   3.843   3.423   3.604 -0.7205 -0.0742 -0.0397
  247DOPC  H18Z34086   3.885   3.542   3.740 -1.6732  1.6024 -1.5935
  248DOPC     N34087   0.486   8.472   1.370  0.3512  0.9418 -0.2319
  248DOPC   C1234088   0.551   8.378   1.478 -1.1153 -0.0658 -0.4381
  248DOPC  H12A34089   0.657   8.399   1.482 -1.0144 -0.7829  1.4466
  248DOPC  H12B34090   0.527   8.278   1.444 -0.9908 -0.3215  0.2118
  248DOPC   C1334091   0.563   8.453   1.244  0.7806  0.5878 -0.2431
  248DOPC  H13A34092   0.665   8.488   1.258  1.5618 -0.8805 -1.8418
  248DOPC  H13B34093   0.557   8.352   1.207 -2.9404  1.0722 -1.3968
  248DOPC  H13C34094   0.524   8.516   1.165  0.4441 -0.6248 -1.0754
  248DOPC   C1434095   0.498   8.616   1.416  0.0180 -0.1108  0.2743
  248DOPC  H14A34096   0.454   8.681   1.342 -0.0620 -1.6769 -1.1134
  248DOPC  H14B34097   0.457   8.639   1.513 -0.0579  1.4224 -0.0863
  248DOPC  H14C34098   0.603   8.637   1.420 -0.1278  0.8637 -0.6392
  248DOPC   C1534099   0.342   8.442   1.335 -0.7323  0.0549  0.5200
  248DOPC  H15A34100   0.284   8.414   1.422 -0.4907  1.8194  1.2945
  248DOPC  H15B34101   0.340   8.362   1.263  1.9528  0.5841 -0.2558
  248DOPC  H15C34102   0.302   8.528   1.283 -3.1603 -0.2708  1.7090
  248DOPC   C1134103   0.506   8.385   1.622  0.5482 -0.3911  0.5034
  248DOPC  H11A34104   0.558   8.306   1.680  1.7608  0.4197  0.5736
  248DOPC  H11B34105   0.532   8.479   1.675 -1.0206 -0.8283  2.1560
  248DOPC     P34106   0.296   8.267   1.716 -0.4222 -0.3470 -0.3412
  248DOPC   O1334107   0.360   8.140   1.670 -0.1664  0.0673  0.0690
  248DOPC   O1434108   0.152   8.273   1.708  0.4034 -0.4936 -0.9726
  248DOPC   O1234109   0.365   8.379   1.634  0.0687  0.1904  0.2541
  248DOPC   O1134110   0.332   8.300   1.863 -0.2783  0.6970 -0.3011
  248DOPC    C134111   0.332   8.429   1.913  0.0183 -0.1562 -0.7798
  248DOPC    HA34112   0.234   8.479   1.899  0.6507  1.5968  0.6654
  248DOPC    HB34113   0.408   8.486   1.855 -1.6628  0.5173 -2.4027
  248DOPC    C234114   0.368   8.440   2.061 -0.0567  0.3486 -0.2459
  248DOPC    HS34115   0.417   8.534   2.092  0.3166 -0.4604  1.7703
  248DOPC   O2134116   0.457   8.342   2.107  0.6860 -0.2376 -0.3249
  248DOPC   C2134117   0.582   8.343   2.070 -0.0340  0.1563  0.7149
  248DOPC   O2234118   0.641   8.439   2.022 -0.6269  0.0325 -0.0728
  248DOPC   C2234119   0.660   8.217   2.104 -0.2950  0.0767 -0.2945
  248DOPC   H2R34120   0.691   8.181   2.004  0.4701  2.1843 -0.8578
  248DOPC   H2S34121   0.595   8.141   2.154 -1.0276  2.6031  2.9697
  248DOPC    C334122   0.237   8.433   2.148 -0.5783 -0.5833  0.7030
  248DOPC    HX34123   0.183   8.340   2.121 -0.4268 -0.4047 -0.2517
  248DOPC    HY34124   0.180   8.524   2.119  2.7444  1.9601  1.4140
  248DOPC   O3134125   0.257   8.439   2.289  0.5799  0.3651  0.7104
  248DOPC   C3134126   0.278   8.324   2.348 -0.7092 -0.6795 -0.6016
  248DOPC   O3234127   0.268   8.212   2.302  0.3770  0.0165  0.2689
  248DOPC   C3234128   0.310   8.344   2.494  0.2250  0.3168 -0.5155
  248DOPC   H2X34129   0.414   8.308   2.506 -0.3681 -1.3884 -0.1027
  248DOPC   H2Y34130   0.293   8.451   2.518 -2.1214  0.2620 -1.6373
  248DOPC   C2334131   0.777   8.231   2.202 -0.5094 -0.4186  0.4581
  248DOPC   H3R34132   0.811   8.337   2.194  0.1370 -0.7785 -3.0480
  248DOPC   H3S34133   0.870   8.174   2.184  0.7485  1.5400  0.4635
  248DOPC   C2434134   0.722   8.220   2.345 -0.3033  0.1178 -0.4949
  248DOPC   H4R34135   0.709   8.115   2.380 -0.7237 -0.1714 -1.4658
  248DOPC   H4S34136   0.623   8.267   2.358  0.0659  1.2176 -1.5337
  248DOPC   C2534137   0.817   8.289   2.450  0.2008  1.1343  0.0814
  248DOPC   H5R34138   0.830   8.395   2.420  2.2489  1.1086  0.7562
  248DOPC   H5S34139   0.923   8.256   2.446 -0.0748  0.1173  0.9376
  248DOPC   C2634140   0.760   8.283   2.591  0.4277 -0.6064 -0.0787
  248DOPC   H6R34141   0.849   8.292   2.656  2.4044  0.4587 -2.7200
  248DOPC   H6S34142   0.714   8.185   2.616  1.0402 -0.2256  2.8405
  248DOPC   C2734143   0.666   8.398   2.619  0.4000  0.3492 -0.0240
  248DOPC   H7R34144   0.581   8.405   2.547 -0.8879 -1.3129  1.2310
  248DOPC   H7S34145   0.715   8.496   2.602  0.9341 -0.4654 -4.3506
  248DOPC   C2834146   0.607   8.398   2.766  0.8468  0.2877 -0.6540
  248DOPC   H8R34147   0.528   8.321   2.780  0.5997  0.9255  1.9808
  248DOPC   H8S34148   0.549   8.490   2.790  1.0609 -0.0064  1.1678
  248DOPC   C2934149   0.721   8.394   2.867 -0.0933 -0.0816  1.1049
  248DOPC   H9R34150   0.792   8.476   2.851 -0.8440  0.9488  2.7297
  248DOPC  C21034151   0.744   8.291   2.947 -0.0926 -0.1078  0.4781
  248DOPC  H10R34152   0.826   8.293   3.021 -0.4565 -3.5833  1.1604
  248DOPC  C21134153   0.642   8.181   2.971  0.2638  0.0545 -0.5435
  248DOPC  H11R34154   0.699   8.092   3.004  0.8499  1.2022  1.7476
  248DOPC  H11S34155   0.593   8.147   2.877 -0.7387  1.2330 -0.4764
  248DOPC  C21234156   0.540   8.227   3.080 -0.7043 -0.2702  0.3644
  248DOPC  H12R34157   0.464   8.147   3.092 -0.9707 -0.2119 -0.8009
  248DOPC  H12S34158   0.487   8.320   3.050 -0.9464 -0.8337 -1.0633
  248DOPC  C21334159   0.604   8.272   3.218  0.7684  0.1500 -0.1222
  248DOPC  H13R34160   0.628   8.379   3.199 -0.6488  0.6050  0.5074
  248DOPC  H13S34161   0.696   8.213   3.240 -0.8781 -2.5859 -0.1367
  248DOPC  C21434162   0.508   8.253   3.331  0.8595 -0.1097 -0.1162
  248DOPC  H14R34163   0.466   8.150   3.336 -0.6326  0.4977  0.3450
  248DOPC  H14S34164   0.413   8.305   3.304  1.2643  0.5511 -0.2754
  248DOPC  C21534165   0.549   8.301   3.471  0.0091  0.4719 -0.1954
  248DOPC  H15R34166   0.630   8.377   3.461 -1.9536  2.4573 -1.9368
  248DOPC  H15S34167   0.597   8.211   3.515 -0.0636  0.6985  0.3448
  248DOPC  C21634168   0.437   8.337   3.567 -0.1698 -0.2641  0.9937
  248DOPC  H16R34169   0.372   8.399   3.502  1.1159 -1.8610 -1.9910
  248DOPC  H16S34170   0.476   8.409   3.643  0.2045  0.6686 -0.0472
  248DOPC  C21734171   0.365   8.229   3.651 -0.5409  0.0204 -0.7207
  248DOPC  H17R34172   0.278   8.261   3.713 -1.1148 -0.7631 -1.1146
  248DOPC  H17S34173   0.435   8.190   3.728  0.7758  2.3430 -0.6271
  248DOPC  C21834174   0.328   8.110   3.576  0.1577 -0.1816 -0.8566
  248DOPC  H18R34175   0.265   8.133   3.488  0.4969  3.1499 -0.3876
  248DOPC  H18S34176   0.280   8.031   3.638  0.7382 -0.3781 -0.6484
  248DOPC  H18T34177   0.419   8.068   3.528 -0.1320 -1.7804 -0.0872
  248DOPC   C3334178   0.217   8.257   2.580  0.0865  0.4145  0.1363
  248DOPC   H3X34179   0.252   8.153   2.562 -0.8092  0.3809 -1.6049
  248DOPC   H3Y34180   0.113   8.277   2.546 -0.1150 -0.0185  0.4731
  248DOPC   C3434181   0.229   8.289   2.731  0.4124  0.8866  0.0878
  248DOPC   H4X34182   0.202   8.392   2.763 -2.1218  0.0712  0.8280
  248DOPC   H4Y34183   0.334   8.280   2.765  0.7014 -1.1560 -1.1794
  248DOPC   C3534184   0.149   8.183   2.815 -0.3649 -0.7698 -0.2650
  248DOPC   H5X34185   0.189   8.082   2.791  0.6805 -0.3257 -0.4763
  248DOPC   H5Y34186   0.042   8.181   2.785 -0.0069 -0.3120 -1.6282
  248DOPC   C3634187   0.178   8.205   2.967  0.5921  0.4646  0.1549
  248DOPC   H6X34188   0.133   8.122   3.026  2.8885 -0.8211  0.2287
  248DOPC   H6Y34189   0.284   8.181   2.994 -0.0670 -2.7352  0.2796
  248DOPC   C3734190   0.128   8.340   3.019  0.3251 -0.3535 -0.0882
  248DOPC   H7X34191   0.181   8.416   2.958  0.8967 -0.1925  0.5998
  248DOPC   H7Y34192   0.017   8.338   3.007  0.5370 -0.5313 -2.6002
  248DOPC   C3834193   0.159   8.377   3.168 -0.1769 -0.0788  0.7537
  248DOPC   H8X34194   0.110   8.475   3.188 -0.0992  0.9081 -2.9941
  248DOPC   H8Y34195   0.268   8.389   3.182 -0.2347  0.2613  0.9178
  248DOPC   C3934196   0.113   8.264   3.255  0.5843 -0.1841 -0.3087
  248DOPC   H9X34197   0.172   8.172   3.243  0.3269 -0.4168  0.2024
  248DOPC  C31034198   0.025   8.275   3.354  0.0093 -0.6437  0.0570
  248DOPC  H10X34199   0.022   8.191   3.425  1.9216 -0.6759  0.1507
  248DOPC  C31134200  -0.043   8.404   3.398 -0.4138 -0.1928 -0.0159
  248DOPC  H11X34201  -0.151   8.380   3.390 -0.5104 -0.6885  2.1294
  248DOPC  H11Y34202  -0.019   8.492   3.334 -1.6301  1.7102  2.0022
  248DOPC  C31234203  -0.000   8.446   3.540 -0.1651 -0.0107  0.3948
  248DOPC  H12X34204  -0.058   8.539   3.560 -0.1788  0.4437 -1.5518
  248DOPC  H12Y34205   0.108   8.468   3.543 -0.5515  2.2702 -0.5773
  248DOPC  C31334206  -0.037   8.349   3.652  0.1648 -0.3698 -0.7302
  248DOPC  H13X34207  -0.146   8.328   3.657  0.5131 -2.3094  0.1325
  248DOPC  H13Y34208   0.001   8.248   3.626  0.0986 -0.4590 -0.4828
  248DOPC  C31434209   0.016   8.388   3.790 -0.0000 -0.0509  0.5212
  248DOPC  H14X34210   0.001   8.305   3.862 -2.0200 -0.7824 -0.6525
  248DOPC  H14Y34211   0.126   8.399   3.782  0.4431 -2.6981  1.7095
  248DOPC  C31534212  -0.039   8.516   3.850 -0.0715 -0.2848  0.3202
  248DOPC  H15X34213  -0.029   8.601   3.779  0.5149  0.6331  1.4630
  248DOPC  H15Y34214   0.025   8.540   3.938  0.0569 -0.1828  0.1990
  248DOPC  C31634215  -0.187   8.508   3.890 -0.0550 -0.0186 -0.6592
  248DOPC  H16X34216  -0.250   8.501   3.799  0.8999  1.3047 -1.4680
  248DOPC  H16Y34217  -0.210   8.420   3.954 -0.5538  0.2501 -0.4634
  248DOPC  C31734218  -0.227   8.633   3.973 -0.0220 -0.3671  0.4793
  248DOPC  H17X34219  -0.199   8.718   3.908 -1.9602  0.2533  0.3816
  248DOPC  H17Y34220  -0.337   8.621   3.980 -0.0754 -0.2360 -0.1104
  248DOPC  C31834221  -0.171   8.655   4.113 -0.5477  0.6548  0.3702
  248DOPC  H18X34222  -0.230   8.726   4.175 -1.3784 -1.0316  1.5796
  248DOPC  H18Y34223  -0.184   8.560   4.169 -2.7776  0.2694 -0.6773
  248DOPC  H18Z34224  -0.067   8.695   4.109 -1.0689  1.9896 -1.0448
  249DOPC     N34225   4.483   3.262   1.716 -0.3464  0.4169 -0.1333
  249DOPC   C1234226   4.594   3.256   1.820 -0.2609  0.4688  0.4415
  249DOPC  H12A34227   4.611   3.361   1.837  0.0833  0.6402 -0.8258
  249DOPC  H12B34228   4.686   3.217   1.779  0.6361  0.9105  1.9843
  249DOPC   C1334229   4.386   3.359   1.769 -0.1130  0.0978 -0.4342
  249DOPC  H13A34230   4.295   3.371   1.713 -2.4364 -2.2139  2.5281
  249DOPC  H13B34231   4.342   3.330   1.863  0.5287  0.5376  0.0184
  249DOPC  H13C34232   4.426   3.458   1.788  0.4916 -0.0118 -1.0954
  249DOPC   C1434233   4.419   3.126   1.702  0.4380  0.1820 -0.0755
  249DOPC  H14A34234   4.335   3.126   1.635  0.8985 -0.4210 -0.6570
  249DOPC  H14B34235   4.484   3.049   1.665  0.8823  0.6127 -0.2031
  249DOPC  H14C34236   4.377   3.102   1.799 -1.5951  0.6394 -0.7901
  249DOPC   C1534237   4.532   3.317   1.584  0.4189  0.6055 -0.5556
  249DOPC  H15A34238   4.465   3.312   1.499  0.0945 -0.1642 -0.2668
  249DOPC  H15B34239   4.628   3.277   1.554  0.5452 -1.9727  2.7010
  249DOPC  H15C34240   4.558   3.420   1.600 -0.5631  0.7340  0.3378
  249DOPC   C1134241   4.567   3.199   1.961 -0.2301 -0.4796  0.1631
  249DOPC  H11A34242   4.653   3.223   2.026 -0.5600 -0.0407  0.4385
  249DOPC  H11B34243   4.491   3.258   2.016  0.8420  0.4278  0.7050
  249DOPC     P34244   4.668   2.961   1.952  0.1864  0.0712 -0.2079
  249DOPC   O1334245   4.771   3.021   1.869  0.2412 -0.4673  0.0108
  249DOPC   O1434246   4.620   2.832   1.909  0.0973  0.1372 -0.0989
  249DOPC   O1234247   4.544   3.052   1.957 -0.3402 -0.7396 -0.0933
  249DOPC   O1134248   4.699   2.960   2.099  0.2432  0.0042 -0.4377
  249DOPC    C134249   4.605   2.912   2.205 -0.3692  0.3441 -0.4904
  249DOPC    HA34250   4.653   2.838   2.273 -1.1160  0.3474  0.0501
  249DOPC    HB34251   4.514   2.867   2.162 -0.2279 -3.2273  2.4968
  249DOPC    C234252   4.564   3.032   2.287  0.1158 -0.4453 -0.4460
  249DOPC    HS34253   4.528   3.102   2.209 -4.1751 -0.7138  1.0064
  249DOPC   O2134254   4.671   3.099   2.348 -0.0071  0.0872  0.3542
  249DOPC   C2134255   4.653   3.219   2.398 -0.9498  1.0468  0.1048
  249DOPC   O2234256   4.554   3.290   2.385  0.5278 -0.1150  0.0892
  249DOPC   C2234257   4.781   3.252   2.478  0.0067 -0.3059  0.2380
  249DOPC   H2R34258   4.828   3.333   2.418 -0.2023  0.1801  0.7235
  249DOPC   H2S34259   4.852   3.166   2.474  0.6897  0.2840 -1.0906
  249DOPC    C334260   4.454   3.001   2.397  0.2163 -0.0238  0.4694
  249DOPC    HX34261   4.381   2.938   2.341 -0.4349  0.2541  0.9998
  249DOPC    HY34262   4.403   3.090   2.439 -2.7427 -2.7584  3.2191
  249DOPC   O3134263   4.518   2.934   2.509  0.0034 -0.2318  0.3164
  249DOPC   C3134264   4.486   2.812   2.534  0.4611  0.1573 -0.0451
  249DOPC   O3234265   4.427   2.736   2.457 -0.4135  0.4487  0.6896
  249DOPC   C3234266   4.536   2.786   2.681 -0.1634 -0.2752 -0.7326
  249DOPC   H2X34267   4.646   2.799   2.680 -0.0331 -0.6236 -4.5761
  249DOPC   H2Y34268   4.499   2.869   2.744  0.1111  0.4005 -1.4473
  249DOPC   C2334269   4.739   3.290   2.626 -0.0457 -0.2068 -0.1471
  249DOPC   H3R34270   4.642   3.341   2.645 -0.2871 -0.7456  0.1148
  249DOPC   H3S34271   4.815   3.367   2.652 -2.9255  2.3146  1.4614
  249DOPC   C2434272   4.761   3.177   2.733  0.6688 -0.4194 -0.3825
  249DOPC   H4R34273   4.848   3.115   2.703  2.0962  0.8474  0.9299
  249DOPC   H4S34274   4.676   3.107   2.718  1.7317 -1.4475 -1.8712
  249DOPC   C2534275   4.759   3.242   2.875  0.5294  0.2818  0.0953
  249DOPC   H5R34276   4.672   3.309   2.889  0.1500 -0.4172  1.1578
  249DOPC   H5S34277   4.843   3.313   2.894  0.7690  0.4991 -1.6176
  249DOPC   C2634278   4.748   3.143   2.988  0.0026 -0.0708  0.6514
  249DOPC   H6R34279   4.845   3.099   3.019  0.0439 -1.4447 -1.2683
  249DOPC   H6S34280   4.686   3.056   2.959  2.5997 -2.0483  0.6418
  249DOPC   C2734281   4.683   3.206   3.114 -0.3688  0.0604 -0.2776
  249DOPC   H7R34282   4.681   3.317   3.108  0.4587  0.1970  1.4857
  249DOPC   H7S34283   4.743   3.182   3.204 -0.9452  2.2452  0.7347
  249DOPC   C2834284   4.535   3.154   3.133 -0.7715 -0.1991  0.4546
  249DOPC   H8R34285   4.481   3.176   3.038  0.9477 -3.8757 -1.5798
  249DOPC   H8S34286   4.482   3.219   3.206  1.0129  0.5247  1.1521
  249DOPC   C2934287   4.536   3.011   3.167  0.0909  0.4746 -0.0786
  249DOPC   H9R34288   4.590   2.938   3.105 -1.8238 -0.4334 -0.7775
  249DOPC  C21034289   4.481   2.958   3.282 -0.1272 -0.3372  0.3714
  249DOPC  H10R34290   4.490   2.851   3.306  0.5109 -0.4203 -0.2118
  249DOPC  C21134291   4.413   3.036   3.390  0.4184 -0.7374 -0.3553
  249DOPC  H11R34292   4.319   2.983   3.418  0.4037 -0.7314 -0.3954
  249DOPC  H11S34293   4.377   3.134   3.354 -3.9386 -1.4585  1.3424
  249DOPC  C21234294   4.505   3.065   3.513  0.1192  0.3497  0.2958
  249DOPC  H12R34295   4.596   3.114   3.470  0.6924  0.7403  1.8668
  249DOPC  H12S34296   4.542   2.973   3.563  0.0796  0.0700 -0.1826
  249DOPC  C21334297   4.442   3.167   3.620  0.0538 -0.3922 -0.1551
  249DOPC  H13R34298   4.335   3.142   3.639  0.8722 -1.4556  4.1352
  249DOPC  H13S34299   4.446   3.270   3.580 -2.5910  0.1111  0.6600
  249DOPC  C21434300   4.510   3.151   3.755 -0.0722 -0.0019 -0.1816
  249DOPC  H14R34301   4.617   3.139   3.728  0.0038  2.3771 -1.2432
  249DOPC  H14S34302   4.465   3.069   3.814 -0.1698  0.6636  0.7021
  249DOPC  C21534303   4.499   3.283   3.837  0.9483  0.3753 -0.1317
  249DOPC  H15R34304   4.538   3.361   3.768  1.0341 -0.6217 -1.2590
  249DOPC  H15S34305   4.569   3.277   3.922 -0.3887  0.1859  0.9990
  249DOPC  C21634306   4.356   3.302   3.894 -0.4872 -0.2429  0.0834
  249DOPC  H16R34307   4.332   3.231   3.975  1.1886 -1.5961 -0.5367
  249DOPC  H16S34308   4.274   3.287   3.821 -0.6160 -0.3792  0.2597
  249DOPC  C21734309   4.341   3.447   3.953  0.3019  0.1252  0.1284
  249DOPC  H17R34310   4.394   3.448   4.051  1.2494  0.5682 -0.3777
  249DOPC  H17S34311   4.233   3.470   3.962  0.2367 -0.8425  2.5811
  249DOPC  C21834312   4.397   3.567   3.874 -0.4131  0.0405  0.6050
  249DOPC  H18R34313   4.338   3.653   3.910 -0.2600  0.4117 -0.0064
  249DOPC  H18S34314   4.400   3.542   3.765 -0.1020 -1.2150  0.8770
  249DOPC  H18T34315   4.501   3.580   3.909 -0.4207 -0.3504  0.7764
  249DOPC   C3334316   4.485   2.652   2.741 -0.6337 -0.0704 -0.4405
  249DOPC   H3X34317   4.516   2.557   2.692  3.4952  0.5079  0.7029
  249DOPC   H3Y34318   4.374   2.661   2.741 -0.5742  1.8435  2.0445
  249DOPC   C3434319   4.538   2.641   2.891 -0.2300  0.1472 -0.3732
  249DOPC   H4X34320   4.507   2.738   2.935 -1.6983 -0.2043 -0.5818
  249DOPC   H4Y34321   4.648   2.623   2.889 -0.2928 -0.3645  0.3047
  249DOPC   C3534322   4.470   2.523   2.958 -0.5039  0.0907 -0.1396
  249DOPC   H5X34323   4.502   2.436   2.897  0.0096  1.5621 -2.0705
  249DOPC   H5Y34324   4.359   2.531   2.949 -0.5599 -1.4777 -1.1101
  249DOPC   C3634325   4.517   2.496   3.103 -0.1057 -0.3942 -0.2925
  249DOPC   H6X34326   4.488   2.393   3.132 -0.3601  0.2453  1.9403
  249DOPC   H6Y34327   4.628   2.496   3.106 -0.0823 -0.7851  3.0976
  249DOPC   C3734328   4.471   2.592   3.208 -0.3716 -0.3247 -0.3463
  249DOPC   H7X34329   4.522   2.689   3.188 -1.2861  1.0301  3.1200
  249DOPC   H7Y34330   4.361   2.608   3.204 -0.3294  0.1101  0.1210
  249DOPC   C3834331   4.503   2.554   3.359 -0.0123  0.2205  0.7644
  249DOPC   H8X34332   4.521   2.649   3.412  1.0566 -1.0212  2.7275
  249DOPC   H8Y34333   4.601   2.503   3.373 -0.3892 -0.2089  1.9689
  249DOPC   C3934334   4.406   2.458   3.422  0.0160  0.1435 -0.1910
  249DOPC   H9X34335   4.394   2.370   3.356  1.5467  0.2324 -0.6158
  249DOPC  C31034336   4.360   2.460   3.554 -0.1644 -0.1304  0.1040
  249DOPC  H10X34337   4.290   2.379   3.580 -1.8968  1.5762  1.0235
  249DOPC  C31134338   4.374   2.575   3.651 -0.5428  0.3036  0.2914
  249DOPC  H11X34339   4.478   2.614   3.638 -1.0392  1.4421 -0.4533
  249DOPC  H11Y34340   4.370   2.545   3.757  3.4847  1.3579  0.9281
  249DOPC  C31234341   4.262   2.683   3.631  0.1222  0.0414  0.0636
  249DOPC  H12X34342   4.161   2.637   3.638  0.3528 -0.2579  1.7075
  249DOPC  H12Y34343   4.273   2.726   3.529 -3.1591 -1.4864 -1.0596
  249DOPC  C31334344   4.258   2.808   3.721 -0.3021 -0.5609 -0.0931
  249DOPC  H13X34345   4.270   2.767   3.824 -0.6801 -1.6221 -0.4536
  249DOPC  H13Y34346   4.343   2.879   3.708 -0.4374 -0.4075 -0.1409
  249DOPC  C31434347   4.128   2.890   3.716  0.1005 -0.7713  0.1426
  249DOPC  H14X34348   4.131   2.945   3.620  2.2321 -3.7169 -1.6575
  249DOPC  H14Y34349   4.042   2.819   3.725 -0.1874 -0.3197  1.1014
  249DOPC  C31534350   4.131   2.987   3.839 -0.6220 -0.5099  0.3767
  249DOPC  H15X34351   4.184   3.074   3.795 -2.5855  0.2475 -0.6084
  249DOPC  H15Y34352   4.187   2.939   3.922 -0.7052  1.3900  1.5953
  249DOPC  C31634353   4.003   3.054   3.865  0.6997  0.0719 -0.3285
  249DOPC  H16X34354   3.962   3.106   3.776 -0.4665 -1.8985 -0.9923
  249DOPC  H16Y34355   3.925   2.979   3.888  0.1611  1.1632  1.6267
  249DOPC  C31734356   3.995   3.170   3.972 -0.8072  0.1933  0.0355
  249DOPC  H17X34357   4.030   3.131   4.070  0.5914 -0.7275 -0.8077
  249DOPC  H17Y34358   4.074   3.241   3.941 -0.2988 -0.5704 -0.4387
  249DOPC  C31834359   3.861   3.240   3.996 -0.8237 -0.0855  0.0552
  249DOPC  H18X34360   3.788   3.167   4.038  0.5475  0.1782  3.1614
  249DOPC  H18Y34361   3.881   3.311   4.079  3.1639 -1.2776  0.3172
  249DOPC  H18Z34362   3.822   3.294   3.907  1.3260  0.1375 -0.8025
  250DOPC     N34363   2.917   8.879   1.193 -0.6295 -0.3075 -0.2370
  250DOPC   C1234364   3.030   8.909   1.289  0.1887  0.6080 -0.2772
  250DOPC  H12A34365   3.066   9.008   1.265 -0.9762  0.5070 -2.7053
  250DOPC  H12B34366   3.105   8.833   1.270 -1.0743 -1.3850  2.0914
  250DOPC   C1334367   2.968   8.871   1.050 -0.2899  0.0375 -0.1577
  250DOPC  H13A34368   3.016   8.963   1.021  0.7105 -0.0288  1.1781
  250DOPC  H13B34369   3.052   8.803   1.045 -1.1954 -1.0616 -1.5284
  250DOPC  H13C34370   2.896   8.841   0.976 -1.8965 -0.7882  1.6726
  250DOPC   C1434371   2.833   9.006   1.207  0.2462  1.0647  0.0668
  250DOPC  H14A34372   2.879   9.088   1.153  0.0498  0.7738 -0.5481
  250DOPC  H14B34373   2.733   8.989   1.172 -0.6777  1.0117  2.4843
  250DOPC  H14C34374   2.810   9.022   1.312  0.3889 -1.7652  0.6093
  250DOPC   C1534375   2.853   8.745   1.232  0.5285  0.4879 -0.2404
  250DOPC  H15A34376   2.817   8.741   1.333 -0.4158  1.5318 -0.5144
  250DOPC  H15B34377   2.920   8.661   1.233  0.1241  0.0990 -2.1103
  250DOPC  H15C34378   2.770   8.717   1.169  0.7878 -2.0155  0.4254
  250DOPC   C1134379   3.009   8.911   1.440 -0.3626 -0.0831  0.0515
  250DOPC  H11A34380   3.106   8.939   1.485 -0.5752 -0.1177  0.5389
  250DOPC  H11B34381   2.935   8.987   1.472 -1.0117 -0.2348 -1.0498
  250DOPC     P34382   3.008   8.749   1.638  0.1785 -0.1897  0.5800
  250DOPC   O1334383   3.156   8.751   1.652  0.1740 -0.2642 -0.5511
  250DOPC   O1434384   2.940   8.624   1.682  0.2757  0.1875 -0.1151
  250DOPC   O1234385   2.965   8.786   1.491 -0.2779 -0.0752 -0.3990
  250DOPC   O1134386   2.945   8.855   1.734 -0.3126  0.3661 -0.4578
  250DOPC    C134387   2.810   8.894   1.740 -0.1648 -0.2710  0.1793
  250DOPC    HA34388   2.742   8.815   1.701  0.6301 -1.9242  1.9893
  250DOPC    HB34389   2.795   8.991   1.687  0.0975 -1.0392 -1.3378
  250DOPC    C234390   2.763   8.919   1.885  0.1758 -0.0285 -0.0435
  250DOPC    HS34391   2.654   8.939   1.887 -0.0910 -1.4488  0.9276
  250DOPC   O2134392   2.841   9.032   1.941 -0.2973  0.0557  0.0815
  250DOPC   C2134393   2.793   9.089   2.051  0.1490  0.4885  0.5488
  250DOPC   O2234394   2.693   9.057   2.107 -0.0512  0.3229 -0.3748
  250DOPC   C2234395   2.893   9.202   2.097  0.5531 -0.2195  0.4642
  250DOPC   H2R34396   2.925   9.245   2.000  0.6749 -0.4876  0.3833
  250DOPC   H2S34397   2.977   9.161   2.158 -0.2520  0.1333  1.8455
  250DOPC    C334398   2.780   8.789   1.971  0.4262  0.7670  0.1630
  250DOPC    HX34399   2.889   8.765   1.973  0.0689 -1.0991 -0.1833
  250DOPC    HY34400   2.738   8.699   1.920  0.3407  0.8879  0.0168
  250DOPC   O3134401   2.735   8.796   2.109 -0.1554 -0.3448  0.0714
  250DOPC   C3134402   2.607   8.764   2.138  0.0700 -0.7986  0.0695
  250DOPC   O3234403   2.522   8.729   2.058  0.0916  0.2185  0.1451
  250DOPC   C3234404   2.592   8.783   2.288  0.0344 -0.4546  0.5530
  250DOPC   H2X34405   2.657   8.707   2.336 -0.0151  0.9036  2.9196
  250DOPC   H2Y34406   2.630   8.883   2.318 -0.7678 -0.7450  2.6942
  250DOPC   C2334407   2.826   9.307   2.191 -0.1928  0.3021  0.1944
  250DOPC   H3R34408   2.728   9.335   2.148 -0.6905  1.0648  1.7430
  250DOPC   H3S34409   2.887   9.400   2.193 -1.9080  1.4716  0.2626
  250DOPC   C2434410   2.811   9.247   2.339  0.0595 -0.7680 -0.3985
  250DOPC   H4R34411   2.913   9.208   2.356  0.7588  0.7024 -1.0180
  250DOPC   H4S34412   2.743   9.159   2.336  0.9211 -1.4674  0.3725
  250DOPC   C2534413   2.774   9.356   2.440  0.2876 -0.0634 -0.0627
  250DOPC   H5R34414   2.667   9.385   2.427  0.4153  1.0510  1.1961
  250DOPC   H5S34415   2.845   9.442   2.435  1.5890 -0.9915  1.5320
  250DOPC   C2634416   2.793   9.296   2.578 -0.4777  0.5317 -0.0060
  250DOPC   H6R34417   2.901   9.283   2.597 -0.5951 -2.5031 -0.9615
  250DOPC   H6S34418   2.756   9.192   2.590 -0.0176  0.2153 -1.1880
  250DOPC   C2734419   2.735   9.389   2.688  0.1647  0.0426  0.0770
  250DOPC   H7R34420   2.747   9.330   2.781 -1.3326 -1.3208 -0.5331
  250DOPC   H7S34421   2.625   9.394   2.675  0.1177 -0.1178  0.3900
  250DOPC   C2834422   2.802   9.528   2.688 -0.0645  0.1816  0.2226
  250DOPC   H8R34423   2.743   9.591   2.758  0.3500 -0.0945  0.8301
  250DOPC   H8S34424   2.788   9.575   2.589 -1.3446 -0.9076 -0.1515
  250DOPC   C2934425   2.942   9.528   2.736  0.2969  1.0525  0.5574
  250DOPC   H9R34426   3.020   9.506   2.661  0.9016  2.5264  0.7037
  250DOPC  C21034427   2.988   9.528   2.866  0.0267 -0.7527 -0.6706
  250DOPC  H10R34428   3.097   9.530   2.880  0.0250 -0.7939 -0.6493
  250DOPC  C21134429   2.903   9.549   2.991  0.0782  0.2868 -0.3025
  250DOPC  H11R34430   2.807   9.591   2.956 -0.5807  0.9079  2.0741
  250DOPC  H11S34431   2.949   9.629   3.052 -1.0416 -0.4757  1.6375
  250DOPC  C21234432   2.900   9.422   3.078  0.0346  0.6222  0.6066
  250DOPC  H12R34433   2.853   9.336   3.027  2.4638 -0.3247 -0.1801
  250DOPC  H12S34434   2.842   9.444   3.170  0.2439  2.2102  0.3876
  250DOPC  C21334435   3.051   9.391   3.129  0.6095  0.6498 -0.4587
  250DOPC  H13R34436   3.135   9.409   3.059  0.6969 -1.5426 -0.9955
  250DOPC  H13S34437   3.044   9.281   3.141  0.7087  0.8843  2.2725
  250DOPC  C21434438   3.079   9.450   3.264  0.1939 -0.3323 -0.1085
  250DOPC  H14R34439   2.979   9.451   3.312  1.2516  1.6631  2.2778
  250DOPC  H14S34440   3.105   9.557   3.250  0.4643 -0.3729  0.0697
  250DOPC  C21534441   3.180   9.377   3.355  0.9507 -0.4619 -0.3710
  250DOPC  H15R34442   3.152   9.270   3.361 -0.0166 -0.1283  1.8571
  250DOPC  H15S34443   3.171   9.414   3.459 -1.7491  0.7588 -0.9792
  250DOPC  C21634444   3.323   9.399   3.304 -0.1074  0.3418 -0.1685
  250DOPC  H16R34445   3.330   9.378   3.195 -1.5675  0.8150 -0.3792
  250DOPC  H16S34446   3.382   9.321   3.356  1.0322  0.8610 -0.6383
  250DOPC  C21734447   3.392   9.534   3.330 -0.1551 -0.3939 -0.1565
  250DOPC  H17R34448   3.393   9.546   3.441  0.6205 -1.7212 -0.0015
  250DOPC  H17S34449   3.336   9.621   3.290 -1.5738 -0.5964  1.2633
  250DOPC  C21834450   3.540   9.526   3.275  0.3957  0.0531  0.1385
  250DOPC  H18R34451   3.519   9.514   3.167  0.0784  0.7595  0.1158
  250DOPC  H18S34452   3.598   9.434   3.299 -0.5602 -0.8542 -0.9257
  250DOPC  H18T34453   3.605   9.615   3.285 -1.0310  1.1243  0.3474
  250DOPC   C3334454   2.442   8.771   2.332 -1.1682 -0.7619 -0.3338
  250DOPC   H3X34455   2.400   8.673   2.298  1.2069 -1.7044 -0.7385
  250DOPC   H3Y34456   2.380   8.853   2.291 -0.8553  0.0950  0.8492
  250DOPC   C3434457   2.421   8.779   2.485  0.3718 -0.1446 -0.5600
  250DOPC   H4X34458   2.503   8.718   2.527 -2.8377 -3.0039  2.2155
  250DOPC   H4Y34459   2.322   8.734   2.509 -0.7954 -0.0907 -4.4882
  250DOPC   C3534460   2.433   8.920   2.545 -0.2180  0.1826 -0.0504
  250DOPC   H5X34461   2.345   8.986   2.527 -0.7061 -0.9652 -2.3728
  250DOPC   H5Y34462   2.527   8.966   2.508 -0.4651  0.2187 -0.6459
  250DOPC   C3634463   2.458   8.915   2.692 -0.8186  0.1338 -0.3629
  250DOPC   H6X34464   2.389   8.839   2.734 -0.5570 -1.0813 -2.0239
  250DOPC   H6Y34465   2.557   8.867   2.710 -0.2477  1.2314 -0.4771
  250DOPC   C3734466   2.467   9.045   2.781 -0.2703  0.0961 -0.0715
  250DOPC   H7X34467   2.553   9.102   2.740 -0.1502 -1.0544 -1.4832
  250DOPC   H7Y34468   2.371   9.102   2.775 -0.8472 -0.7601  0.7551
  250DOPC   C3834469   2.498   9.013   2.931  0.3456  0.1473  0.3447
  250DOPC   H8X34470   2.525   9.108   2.981 -0.6050  0.3927  0.4224
  250DOPC   H8Y34471   2.589   8.950   2.939  0.3703 -0.0028 -1.0154
  250DOPC   C3934472   2.393   8.932   3.003  0.2716  0.7527 -0.6165
  250DOPC   H9X34473   2.340   8.853   2.947  2.3681 -1.7042  0.6655
  250DOPC  C31034474   2.340   8.945   3.124  0.4221  0.0489 -0.0530
  250DOPC  H10X34475   2.266   8.873   3.163 -0.1396  0.3154 -0.6025
  250DOPC  C31134476   2.385   9.047   3.231  0.2268 -0.3594  0.9124
  250DOPC  H11X34477   2.336   9.145   3.213  2.2916  0.0211 -4.0283
  250DOPC  H11Y34478   2.494   9.064   3.214 -0.3769  2.2385 -0.8753
  250DOPC  C31234479   2.356   9.007   3.373 -0.7125 -0.3318  0.0139
  250DOPC  H12X34480   2.249   8.980   3.386 -0.3788 -1.1671  1.1833
  250DOPC  H12Y34481   2.380   9.094   3.438  3.1886 -0.8778 -0.4702
  250DOPC  C31334482   2.445   8.890   3.422  0.0239 -0.2416 -0.6076
  250DOPC  H13X34483   2.443   8.791   3.371  1.0875 -0.8154  0.3978
  250DOPC  H13Y34484   2.549   8.928   3.417 -1.0234  2.7935 -1.9305
  250DOPC  C31434485   2.395   8.850   3.565  0.0757 -0.2158 -0.0392
  250DOPC  H14X34486   2.286   8.833   3.561  0.1481 -0.5193 -0.8012
  250DOPC  H14Y34487   2.433   8.747   3.586  0.7047 -0.6103 -2.7405
  250DOPC  C31534488   2.451   8.950   3.677 -0.8939 -0.0927 -0.7154
  250DOPC  H15X34489   2.390   9.040   3.652  2.2191  1.3256 -4.1282
  250DOPC  H15Y34490   2.561   8.966   3.677 -0.7022 -1.1541  1.0932
  250DOPC  C31634491   2.399   8.906   3.818 -0.0835  0.6327 -0.3950
  250DOPC  H16X34492   2.362   9.000   3.864 -0.8516  0.4642 -0.6427
  250DOPC  H16Y34493   2.311   8.840   3.800  1.2785 -0.7579 -2.4166
  250DOPC  C31734494   2.505   8.836   3.911 -0.9865 -0.3526  0.8744
  250DOPC  H17X34495   2.534   8.736   3.874  0.9023  0.3777  0.2394
  250DOPC  H17Y34496   2.597   8.899   3.917 -0.2018 -1.5125  1.2832
  250DOPC  C31834497   2.442   8.821   4.050  0.3709 -0.1875 -0.7080
  250DOPC  H18X34498   2.523   8.780   4.114 -0.4578  0.2326  0.6600
  250DOPC  H18Y34499   2.403   8.916   4.093  1.9269  0.4002 -0.5424
  250DOPC  H18Z34500   2.359   8.746   4.046 -0.7226  0.9741 -0.4142
  251DOPC     N34501   7.214  10.821   2.286  0.0105  0.1904  0.3972
  251DOPC   C1234502   7.164  10.690   2.345  0.2128  0.1811 -0.0871
  251DOPC  H12A34503   7.098  10.639   2.277  1.6438 -1.3265 -0.4075
  251DOPC  H12B34504   7.101  10.719   2.428  2.3127  0.1372  1.6123
  251DOPC   C1334505   7.281  10.805   2.150 -0.4118  0.4383 -0.3348
  251DOPC  H13A34506   7.308  10.903   2.113 -0.0042 -0.4388 -2.5055
  251DOPC  H13B34507   7.368  10.741   2.155  0.2822  1.3068 -0.9939
  251DOPC  H13C34508   7.209  10.777   2.075 -0.7577  1.7804 -0.5354
  251DOPC   C1434509   7.309  10.892   2.375  0.0121 -0.5363 -0.6797
  251DOPC  H14A34510   7.260  10.914   2.469  0.0743 -0.4244 -0.6742
  251DOPC  H14B34511   7.396  10.835   2.404 -1.2145 -0.5906  3.7923
  251DOPC  H14C34512   7.349  10.981   2.330 -0.7714 -0.0973 -0.5343
  251DOPC   C1534513   7.090  10.901   2.251 -0.4877 -0.2895 -0.4519
  251DOPC  H15A34514   7.113  11.001   2.215 -0.0450 -0.1474  0.1872
  251DOPC  H15B34515   7.033  10.917   2.341 -2.5700 -0.7546 -1.6466
  251DOPC  H15C34516   7.025  10.853   2.180 -1.0779 -2.9148  1.7111
  251DOPC   C1134517   7.268  10.582   2.388 -0.2962  0.1576 -0.0526
  251DOPC  H11A34518   7.340  10.639   2.449 -0.6998  0.6178 -0.0062
  251DOPC  H11B34519   7.206  10.502   2.434 -1.7402 -0.0473 -2.1930
  251DOPC     P34520   7.493  10.495   2.272  0.1303  0.0952  0.3072
  251DOPC   O1334521   7.582  10.613   2.258 -0.2979  0.7227  0.3439
  251DOPC   O1434522   7.511  10.388   2.171  0.0807 -0.3612  0.1279
  251DOPC   O1234523   7.335  10.525   2.272  0.2892  0.5343  0.4249
  251DOPC   O1134524   7.522  10.429   2.416 -0.2122 -0.1621  0.0523
  251DOPC    C134525   7.661  10.405   2.445 -0.2588  0.1404  0.4361
  251DOPC    HA34526   7.714  10.501   2.428 -0.0727 -0.0571 -0.1144
  251DOPC    HB34527   7.710  10.333   2.377 -1.0093 -0.3853  0.4442
  251DOPC    C234528   7.678  10.364   2.584 -0.1619  0.3235 -0.8073
  251DOPC    HS34529   7.617  10.273   2.605  0.3927  0.1742  0.1598
  251DOPC   O2134530   7.640  10.473   2.676 -0.2379 -0.3848 -0.3113
  251DOPC   C2134531   7.524  10.449   2.739 -0.1010 -0.7088  0.6564
  251DOPC   O2234532   7.456  10.349   2.725 -0.1348 -0.3290  0.5558
  251DOPC   C2234533   7.490  10.565   2.829 -1.0752 -0.6382 -0.6201
  251DOPC   H2R34534   7.503  10.661   2.775 -0.5929 -0.6004 -0.4449
  251DOPC   H2S34535   7.553  10.556   2.920 -0.9353  2.3967 -0.2992
  251DOPC    C334536   7.828  10.321   2.605  0.1620 -0.2805  0.7238
  251DOPC    HX34537   7.894  10.409   2.593  0.4265 -0.5594  0.1160
  251DOPC    HY34538   7.856  10.254   2.521  0.5361  0.2723  0.4057
  251DOPC   O3134539   7.849  10.256   2.733  0.0995  0.1377 -0.3061
  251DOPC   C3134540   7.801  10.135   2.741  0.1054  0.1847  0.8159
  251DOPC   O3234541   7.753  10.066   2.650 -0.1081  0.3365 -0.1742
  251DOPC   C3234542   7.821  10.087   2.878 -0.2027  0.0827 -0.0073
  251DOPC   H2X34543   7.931  10.072   2.883 -0.0463  1.4592  1.2648
  251DOPC   H2Y34544   7.792  10.167   2.949 -0.4415  0.1880 -0.2221
  251DOPC   C2334545   7.336  10.574   2.852  0.3529 -0.6415  0.4732
  251DOPC   H3R34546   7.279  10.579   2.757 -0.5382  0.6900  1.0424
  251DOPC   H3S34547   7.330  10.672   2.904 -1.5186 -1.4636  1.9280
  251DOPC   C2434548   7.266  10.476   2.938 -0.1389  0.8464 -0.2536
  251DOPC   H4R34549   7.256  10.380   2.884 -0.1675  1.2373 -0.9447
  251DOPC   H4S34550   7.162  10.513   2.953 -0.7893 -1.0263  0.1586
  251DOPC   C2534551   7.329  10.440   3.075  0.1515  0.0364 -0.1065
  251DOPC   H5R34552   7.384  10.530   3.108 -0.0233 -0.0451  0.4199
  251DOPC   H5S34553   7.404  10.359   3.060  1.3612  1.1813 -0.4668
  251DOPC   C2634554   7.223  10.392   3.177  0.3595 -0.1065 -0.8645
  251DOPC   H6R34555   7.173  10.298   3.145  1.3670 -1.3346  0.9465
  251DOPC   H6S34556   7.141  10.465   3.192 -0.1165 -0.6430 -0.8144
  251DOPC   C2734557   7.286  10.369   3.313  0.3078 -0.3171 -0.4576
  251DOPC   H7R34558   7.360  10.448   3.339 -0.1054 -0.0542 -0.0813
  251DOPC   H7S34559   7.343  10.274   3.303  1.6837  0.4153  0.1353
  251DOPC   C2834560   7.184  10.341   3.425 -0.0933  0.0150  0.3746
  251DOPC   H8R34561   7.116  10.259   3.395  1.1980 -0.9433  0.0035
  251DOPC   H8S34562   7.125  10.435   3.436  0.4180  0.6143 -1.5288
  251DOPC   C2934563   7.247  10.305   3.557 -0.5114 -0.2003 -0.1998
  251DOPC   H9R34564   7.348  10.347   3.569 -0.9602  1.4421 -1.6093
  251DOPC  C21034565   7.200  10.219   3.653  0.0402 -0.2422 -0.5200
  251DOPC  H10R34566   7.245  10.213   3.753  0.2471  4.1133 -0.1889
  251DOPC  C21134567   7.063  10.143   3.641 -0.7255  0.4123  0.7975
  251DOPC  H11R34568   6.999  10.193   3.565  0.3277 -2.0409 -1.9009
  251DOPC  H11S34569   6.994  10.157   3.727 -0.6454  0.6222  0.8281
  251DOPC  C21234570   7.088   9.993   3.600 -0.1912  0.4829  0.4046
  251DOPC  H12R34571   7.141   9.992   3.503  2.5090  1.3692  1.7701
  251DOPC  H12S34572   6.984   9.954   3.590 -0.9442  2.1795  1.1297
  251DOPC  C21334573   7.167   9.914   3.707  0.3274  0.9509 -0.4755
  251DOPC  H13R34574   7.118   9.917   3.806  0.8739 -1.7040 -0.0267
  251DOPC  H13S34575   7.269   9.958   3.712  0.4583  1.3248 -3.9078
  251DOPC  C21434576   7.188   9.760   3.671  0.2897 -0.1745 -0.3980
  251DOPC  H14R34577   7.264   9.741   3.749 -1.0165 -2.0436  0.4906
  251DOPC  H14S34578   7.231   9.751   3.569  0.6317  0.4414 -0.3158
  251DOPC  C21534579   7.073   9.667   3.707  0.6194  0.2396  0.4279
  251DOPC  H15R34580   7.041   9.675   3.813  2.3750 -0.9068  1.0986
  251DOPC  H15S34581   7.111   9.563   3.696  0.9717  0.4720 -0.6570
  251DOPC  C21634582   6.949   9.670   3.615 -0.6771  0.2894  0.2829
  251DOPC  H16R34583   6.972   9.670   3.506 -0.3410 -0.9319  0.3447
  251DOPC  H16S34584   6.905   9.772   3.624  2.4230  1.8386 -0.7030
  251DOPC  C21734585   6.845   9.578   3.667 -0.6404 -0.1553 -0.4397
  251DOPC  H17R34586   6.743   9.598   3.627 -0.5511  0.4454 -0.3623
  251DOPC  H17S34587   6.840   9.593   3.777 -0.5771 -0.6393 -0.3660
  251DOPC  C21834588   6.874   9.426   3.655  0.2847 -0.2204 -0.2342
  251DOPC  H18R34589   6.971   9.403   3.703 -0.1025 -0.9192  0.2421
  251DOPC  H18S34590   6.887   9.397   3.549  1.3081  0.2968 -0.2546
  251DOPC  H18T34591   6.794   9.361   3.697  0.1686  1.2153  1.9611
  251DOPC   C3334592   7.715   9.979   2.917 -0.3357  0.6612  1.1313
  251DOPC   H3X34593   7.739   9.945   3.020 -0.3715 -0.1326  0.8856
  251DOPC   H3Y34594   7.721   9.891   2.850  2.8797  1.9454 -0.4572
  251DOPC   C3434595   7.567  10.039   2.929 -0.4707  0.7546  0.2703
  251DOPC   H4X34596   7.526  10.078   2.834 -1.7798  0.8853  0.8731
  251DOPC   H4Y34597   7.571  10.131   2.991  2.3082  0.5692  0.5318
  251DOPC   C3534598   7.472   9.932   2.988 -0.2073  0.1550 -0.7979
  251DOPC   H5X34599   7.500   9.841   2.931  1.2951 -1.1933  1.8809
  251DOPC   H5Y34600   7.368   9.964   2.966  0.7138  3.2203 -1.2982
  251DOPC   C3634601   7.489   9.897   3.136  0.4848  0.0261 -0.0273
  251DOPC   H6X34602   7.432   9.802   3.144  2.2060 -1.1583 -1.2785
  251DOPC   H6Y34603   7.596   9.882   3.159  0.8194 -1.7685 -2.3593
  251DOPC   C3734604   7.435  10.014   3.221  0.0996  0.0729 -0.4762
  251DOPC   H7X34605   7.480  10.112   3.193  0.8892  0.4852  1.9774
  251DOPC   H7Y34606   7.326  10.022   3.200  0.3799 -0.4255 -2.2882
  251DOPC   C3834607   7.462   9.970   3.367 -0.3106  0.1405  0.1205
  251DOPC   H8X34608   7.436   9.862   3.376  0.7267 -0.0980  0.3810
  251DOPC   H8Y34609   7.386  10.021   3.429  0.0582  2.3838 -1.1882
  251DOPC   C3934610   7.608   9.998   3.415  0.3256  0.2510 -0.9047
  251DOPC   H9X34611   7.655  10.082   3.361 -1.8054 -0.7814 -4.7809
  251DOPC  C31034612   7.658   9.960   3.534 -0.4461 -0.4062 -0.0590
  251DOPC  H10X34613   7.762   9.983   3.561  0.1109 -0.0444 -2.2879
  251DOPC  C31134614   7.575   9.880   3.626  0.2659  0.1303 -0.7583
  251DOPC  H11X34615   7.476   9.850   3.586  0.0977  0.3057 -0.4732
  251DOPC  H11Y34616   7.563   9.934   3.723 -1.2585  1.8014 -1.8091
  251DOPC  C31234617   7.630   9.738   3.643 -0.5121 -1.0521  0.0273
  251DOPC  H12X34618   7.731   9.746   3.688 -0.5453  1.0783 -0.1878
  251DOPC  H12Y34619   7.635   9.691   3.542  0.0468 -0.1454 -0.3787
  251DOPC  C31334620   7.552   9.651   3.733 -0.1032  0.0031 -0.3027
  251DOPC  H13X34621   7.543   9.713   3.825  1.0233  0.3040 -0.3842
  251DOPC  H13Y34622   7.453   9.644   3.684 -0.0562  1.6303 -0.6960
  251DOPC  C31434623   7.617   9.514   3.758 -0.3114 -0.9143 -0.3019
  251DOPC  H14X34624   7.609   9.451   3.668  1.6812 -1.3108 -0.2590
  251DOPC  H14Y34625   7.724   9.542   3.771 -0.0485 -0.9515 -2.1827
  251DOPC  C31534626   7.550   9.444   3.873  0.6430  0.6237 -0.6909
  251DOPC  H15X34627   7.441   9.431   3.852  0.6576 -0.4768 -0.1620
  251DOPC  H15Y34628   7.557   9.510   3.962  0.0861 -1.0933  0.6970
  251DOPC  C31634629   7.603   9.296   3.895 -0.0715 -0.1125 -0.1188
  251DOPC  H16X34630   7.527   9.241   3.954 -0.5127 -0.1431 -0.7097
  251DOPC  H16Y34631   7.611   9.246   3.797 -2.6254 -0.6913 -0.0930
  251DOPC  C31734632   7.736   9.297   3.968 -0.1375 -0.1133  0.2264
  251DOPC  H17X34633   7.802   9.347   3.894  0.5010 -0.0699  0.8209
  251DOPC  H17Y34634   7.734   9.362   4.058 -0.7209  0.3056 -0.0843
  251DOPC  C31834635   7.784   9.157   4.003  0.4521  0.1150  0.0873
  251DOPC  H18X34636   7.895   9.154   4.007  0.4376 -3.4682  0.5646
  251DOPC  H18Y34637   7.739   9.122   4.098 -2.1400  1.7276 -0.4554
  251DOPC  H18Z34638   7.748   9.083   3.928  0.2573 -0.1032  0.3987
  252DOPC     N34639  10.087   6.764   1.936 -0.2403 -0.2690 -1.3175
  252DOPC   C1234640   9.950   6.742   1.876  0.5194  0.1485  0.2606
  252DOPC  H12A34641   9.963   6.762   1.771  1.1215 -1.5295 -0.0093
  252DOPC  H12B34642   9.883   6.821   1.908 -2.3846 -1.1957 -2.0286
  252DOPC   C1334643  10.194   6.701   1.853  0.2628  0.1279  0.4598
  252DOPC  H13A34644  10.166   6.601   1.822 -3.1580  0.8566  0.8310
  252DOPC  H13B34645  10.198   6.757   1.761 -0.1072  0.4499  0.6389
  252DOPC  H13C34646  10.295   6.717   1.889  1.8206 -0.4365 -3.2313
  252DOPC   C1434647  10.097   6.718   2.078 -0.1916  0.9336  0.1243
  252DOPC  H14A34648  10.015   6.746   2.142 -0.8337  3.0522 -1.4980
  252DOPC  H14B34649  10.079   6.612   2.079 -0.9524  0.9661 -2.6211
  252DOPC  H14C34650  10.195   6.727   2.124  0.0979 -3.7353  0.9235
  252DOPC   C1534651  10.110   6.912   1.944  0.7859 -0.3264 -0.5783
  252DOPC  H15A34652  10.206   6.936   1.986  0.3285  1.0856 -0.2595
  252DOPC  H15B34653  10.032   6.957   2.003 -0.7902 -1.8836 -1.3768
  252DOPC  H15C34654  10.102   6.958   1.846 -0.9984  0.3553 -0.1596
  252DOPC   C1134655   9.879   6.608   1.903  0.0672 -0.1009  0.6791
  252DOPC  H11A34656   9.864   6.599   2.013  0.6591 -1.9637  0.6450
  252DOPC  H11B34657   9.780   6.603   1.852  0.2069 -1.3375  0.5008
  252DOPC     P34658  10.001   6.373   1.901  0.3419 -0.0150 -0.0668
  252DOPC   O1334659  10.125   6.325   1.841 -0.2774  0.0759 -0.1903
  252DOPC   O1434660   9.883   6.282   1.905 -0.1173 -0.0935  0.2532
  252DOPC   O1234661   9.955   6.506   1.833 -0.0601 -0.3951  0.2158
  252DOPC   O1134662  10.033   6.421   2.050 -0.0030  0.3104  0.8442
  252DOPC    C134663  10.027   6.330   2.162 -0.1492  0.3416 -0.5574
  252DOPC    HA34664  10.052   6.227   2.131 -1.1474  0.5501 -2.1503
  252DOPC    HB34665   9.921   6.328   2.196  0.2735 -0.4867  0.8262
  252DOPC    C234666  10.119   6.380   2.277  0.4327 -0.0339 -0.0261
  252DOPC    HS34667  10.123   6.308   2.362 -0.6676 -0.8625 -0.6485
  252DOPC   O2134668  10.072   6.510   2.324 -0.0401  0.2459 -0.2236
  252DOPC   C2134669   9.959   6.498   2.397 -0.0702 -0.4561 -0.2663
  252DOPC   O2234670   9.893   6.397   2.413  0.3459 -0.2750  1.0952
  252DOPC   C2234671   9.927   6.628   2.468 -0.3777 -0.3817  0.4893
  252DOPC   H2R34672   9.847   6.681   2.411 -2.1368 -0.8324  2.4114
  252DOPC   H2S34673  10.019   6.690   2.456 -0.0886 -1.1838 -2.0907
  252DOPC    C334674  10.270   6.387   2.230 -0.1021  0.7094  0.0937
  252DOPC    HX34675  10.280   6.438   2.131 -0.9767  0.6202 -0.0551
  252DOPC    HY34676  10.311   6.286   2.209 -2.4728 -0.7327  1.8612
  252DOPC   O3134677  10.357   6.438   2.337 -0.0573 -0.4326 -0.1901
  252DOPC   C3134678  10.378   6.568   2.317 -0.4224  0.2621  0.5527
  252DOPC   O3234679  10.360   6.628   2.215 -0.3570  0.4700  0.1801
  252DOPC   C3234680  10.434   6.625   2.451  0.0847 -0.1311  0.1057
  252DOPC   H2X34681  10.350   6.654   2.518 -0.5913  3.4622 -2.0334
  252DOPC   H2Y34682  10.490   6.542   2.499 -1.5681 -0.8360  0.9137
  252DOPC   C2334683   9.889   6.606   2.614 -0.4279  0.6629  0.5371
  252DOPC   H3R34684   9.976   6.563   2.667 -1.1022  1.0016  1.9637
  252DOPC   H3S34685   9.806   6.539   2.645  0.5373  0.4616  2.8302
  252DOPC   C2434686   9.861   6.735   2.693  0.0563 -0.2095  0.8400
  252DOPC   H4R34687   9.798   6.800   2.629 -0.3693  0.4230  1.8662
  252DOPC   H4S34688   9.958   6.787   2.707 -0.3606  0.6655  0.5371
  252DOPC   C2534689   9.794   6.718   2.831  0.7486 -0.3654 -0.4241
  252DOPC   H5R34690   9.690   6.678   2.839  0.1865  0.8581 -1.2094
  252DOPC   H5S34691   9.780   6.821   2.870  1.9892 -0.2156 -0.3493
  252DOPC   C2634692   9.886   6.655   2.937 -0.2678  0.6330  0.1840
  252DOPC   H6R34693   9.987   6.702   2.932  0.4991 -1.0959 -2.2550
  252DOPC   H6S34694   9.897   6.546   2.919  0.0879  0.7788 -0.5055
  252DOPC   C2734695   9.831   6.668   3.082  0.8640  1.0610  0.1832
  252DOPC   H7R34696   9.727   6.628   3.082  1.3230 -0.1598 -0.1165
  252DOPC   H7S34697   9.832   6.778   3.095 -1.1533  1.1493 -0.1294
  252DOPC   C2834698   9.903   6.589   3.186 -0.6157 -0.4467 -0.2894
  252DOPC   H8R34699   9.896   6.481   3.162  0.4199 -0.0952 -2.4066
  252DOPC   H8S34700   9.849   6.598   3.283  1.0454 -2.0190  0.8566
  252DOPC   C2934701  10.046   6.631   3.207  0.9011  0.1964 -0.5439
  252DOPC   H9R34702  10.068   6.731   3.167 -1.3740  1.4649  1.1568
  252DOPC  C21034703  10.130   6.581   3.300 -0.2134  0.1407 -0.2035
  252DOPC  H10R34704  10.222   6.634   3.328  0.1061 -0.1787 -0.6467
  252DOPC  C21134705  10.090   6.461   3.384  0.3788  0.2453  0.1969
  252DOPC  H11R34706   9.983   6.443   3.364  0.4850  0.4983 -0.6499
  252DOPC  H11S34707  10.100   6.478   3.493  0.7459 -0.1992  0.2354
  252DOPC  C21234708  10.165   6.334   3.340 -0.0254  0.9218  0.3076
  252DOPC  H12R34709  10.152   6.324   3.231 -0.5155  1.4102  0.3216
  252DOPC  H12S34710  10.125   6.241   3.387  0.5700  0.2947 -0.3863
  252DOPC  C21334711  10.321   6.333   3.372 -0.1410 -0.3020  0.3696
  252DOPC  H13R34712  10.324   6.352   3.481  1.3045  0.7130  0.1796
  252DOPC  H13S34713  10.383   6.416   3.330 -1.9496 -0.2657 -2.5052
  252DOPC  C21434714  10.377   6.195   3.343 -0.0665  0.3531  0.0504
  252DOPC  H14R34715  10.385   6.193   3.232 -2.0335 -0.7107 -0.1099
  252DOPC  H14S34716  10.308   6.114   3.375 -0.1431 -0.4222 -1.9308
  252DOPC  C21534717  10.516   6.162   3.402  0.0411  0.2694  0.2053
  252DOPC  H15R34718  10.515   6.210   3.502 -3.3747  1.1353 -0.1142
  252DOPC  H15S34719  10.590   6.195   3.326 -0.3265 -0.5772 -0.5471
  252DOPC  C21634720  10.540   6.008   3.411 -0.6386 -0.2953 -0.1931
  252DOPC  H16R34721  10.475   5.971   3.493 -0.1362 -0.4293  0.1480
  252DOPC  H16S34722  10.642   6.003   3.455 -0.9643  0.1424  0.6252
  252DOPC  C21734723  10.521   5.929   3.285 -0.6629 -0.0567 -0.3596
  252DOPC  H17R34724  10.592   5.974   3.211  2.7156 -2.5630  1.1174
  252DOPC  H17S34725  10.423   5.954   3.240 -1.3583  0.7871  1.5256
  252DOPC  C21834726  10.517   5.776   3.300 -0.1527 -0.7143  0.9816
  252DOPC  H18R34727  10.622   5.750   3.324 -0.2546 -1.6254  0.5167
  252DOPC  H18S34728  10.488   5.725   3.206 -1.3655 -1.5512  1.7733
  252DOPC  H18T34729  10.456   5.741   3.386  1.3219 -1.7625  1.6512
  252DOPC   C3334730  10.520   6.747   2.426  1.0524  0.5502 -0.3590
  252DOPC   H3X34731  10.463   6.816   2.361 -0.9879  0.3236  1.1154
  252DOPC   H3Y34732  10.616   6.709   2.385  2.5587  0.1572  3.1342
  252DOPC   C3434733  10.568   6.819   2.553 -0.7668 -0.0388 -0.5219
  252DOPC   H4X34734  10.611   6.918   2.524  0.4481  0.2132  1.9159
  252DOPC   H4Y34735  10.652   6.756   2.588  0.7081 -0.6673 -4.6321
  252DOPC   C3534736  10.465   6.826   2.674 -0.6182  0.0794 -0.6061
  252DOPC   H5X34737  10.518   6.866   2.763 -0.6698  0.6665 -0.8332
  252DOPC   H5Y34738  10.425   6.726   2.702  3.2437 -0.9436  2.0477
  252DOPC   C3634739  10.346   6.920   2.646 -0.8123  0.3894 -0.6054
  252DOPC   H6X34740  10.381   7.022   2.623 -4.5106  2.3310  1.4274
  252DOPC   H6Y34741  10.283   6.885   2.562 -2.4878  0.0662  0.7195
  252DOPC   C3734742  10.272   6.949   2.780  0.1796  0.5172 -0.3304
  252DOPC   H7X34743  10.194   6.872   2.796  0.1447  0.6144 -0.0106
  252DOPC   H7Y34744  10.345   6.944   2.865 -0.6301 -0.1190  0.3456
  252DOPC   C3834745  10.204   7.092   2.776  0.4540  0.6085 -0.3406
  252DOPC   H8X34746  10.282   7.164   2.810 -0.4942  1.3426  0.3320
  252DOPC   H8Y34747  10.134   7.100   2.861 -1.7910  1.1117 -2.1490
  252DOPC   C3934748  10.124   7.137   2.657 -0.2436  0.6626  0.4078
  252DOPC   H9X34749  10.181   7.127   2.563  0.2631  1.8227  0.5674
  252DOPC  C31034750  10.003   7.194   2.639 -0.6562 -0.4144 -0.5194
  252DOPC  H10X34751   9.981   7.211   2.532 -0.6082 -0.9566 -0.6167
  252DOPC  C31134752   9.906   7.247   2.744 -0.0555  0.3725  0.0893
  252DOPC  H11X34753   9.869   7.347   2.714  0.6647  1.2904  2.1176
  252DOPC  H11Y34754   9.957   7.258   2.842  0.0773 -0.0409  0.0693
  252DOPC  C31234755   9.797   7.141   2.764 -0.4423 -0.1311  0.3148
  252DOPC  H12X34756   9.846   7.041   2.775  0.2634 -0.2674 -3.0354
  252DOPC  H12Y34757   9.736   7.116   2.674 -1.7712 -0.7462  1.3367
  252DOPC  C31334758   9.698   7.177   2.881 -0.2585 -0.7168  0.0763
  252DOPC  H13X34759   9.657   7.279   2.862  0.4671 -0.6574 -1.2861
  252DOPC  H13Y34760   9.624   7.095   2.889 -0.4330 -0.8393 -2.2186
  252DOPC  C31434761   9.773   7.168   3.020 -0.3335  0.3288 -0.5564
  252DOPC  H14X34762   9.818   7.066   3.018  0.6962  0.7516 -3.4136
  252DOPC  H14Y34763   9.854   7.242   3.033  0.5659 -0.6038 -0.7508
  252DOPC  C31534764   9.669   7.184   3.135  0.5028 -0.2721 -0.1537
  252DOPC  H15X34765   9.585   7.112   3.121  1.3096 -0.9360 -1.9318
  252DOPC  H15Y34766   9.625   7.286   3.135  0.7285 -0.1509  1.1589
  252DOPC  C31634767   9.724   7.158   3.269 -0.2732 -0.0995 -0.1090
  252DOPC  H16X34768   9.767   7.056   3.278 -2.0213 -0.7763  1.3290
  252DOPC  H16Y34769   9.793   7.236   3.309 -0.6652  0.7007 -0.9486
  252DOPC  C31734770   9.614   7.161   3.380  0.3412 -0.6964 -0.4301
  252DOPC  H17X34771   9.530   7.091   3.362  1.1233 -2.4911  2.2681
  252DOPC  H17Y34772   9.673   7.108   3.458 -0.0061  0.1086  0.4049
  252DOPC  C31834773   9.561   7.297   3.431  0.2077  0.2575 -0.1711
  252DOPC  H18X34774   9.487   7.266   3.508  2.0043 -1.9913  0.7755
  252DOPC  H18Y34775   9.644   7.354   3.479 -0.6242  0.7395  0.7553
  252DOPC  H18Z34776   9.517   7.362   3.353  1.8053  0.4357 -0.9646
  253DOPC     N34777   2.403   4.975   1.895  0.4291 -0.2993  0.1850
  253DOPC   C1234778   2.542   5.048   1.878 -0.2178 -0.2786 -0.1009
  253DOPC  H12A34779   2.522   5.149   1.846  2.1191  0.7675  1.5044
  253DOPC  H12B34780   2.586   4.999   1.792 -2.5537  1.5111 -2.4880
  253DOPC   C1334781   2.319   5.040   2.005  0.6170  0.5834  0.1445
  253DOPC  H13A34782   2.383   5.027   2.092 -0.2622  1.9430  1.0386
  253DOPC  H13B34783   2.315   5.148   1.995  1.1287  0.6742  0.8070
  253DOPC  H13C34784   2.226   4.986   2.017  0.7304  0.6524  1.6072
  253DOPC   C1434785   2.430   4.828   1.922 -0.0417 -0.0602  0.2740
  253DOPC  H14A34786   2.463   4.789   1.827  1.1526  1.5518 -0.0115
  253DOPC  H14B34787   2.497   4.822   2.006  1.1729  1.5257 -0.5397
  253DOPC  H14C34788   2.333   4.785   1.945 -2.3805  4.0989 -0.7524
  253DOPC   C1534789   2.318   4.980   1.774  0.5142 -0.3800  0.3780
  253DOPC  H15A34790   2.284   5.082   1.764 -0.2610 -0.4850  1.6338
  253DOPC  H15B34791   2.232   4.916   1.785 -0.0950  0.5075  0.9058
  253DOPC  H15C34792   2.364   4.941   1.684 -0.7439 -2.1499  0.4440
  253DOPC   C1134793   2.638   5.057   2.001 -0.4959  0.0769  0.0135
  253DOPC  H11A34794   2.717   5.132   1.980  2.4171 -3.2850 -2.2078
  253DOPC  H11B34795   2.587   5.086   2.095 -0.5096  0.5668 -0.1446
  253DOPC     P34796   2.835   4.896   1.955  0.3753 -0.0300  0.5666
  253DOPC   O1334797   2.858   4.948   1.819 -0.1326  0.2044  0.4934
  253DOPC   O1434798   2.855   4.748   1.972 -0.3132  0.0229  0.2813
  253DOPC   O1234799   2.697   4.934   2.017  0.0549  0.0662  0.2140
  253DOPC   O1134800   2.929   4.978   2.050 -0.3695  0.0844  0.2271
  253DOPC    C134801   2.944   4.950   2.190  0.1297  0.0023  0.0982
  253DOPC    HA34802   3.022   4.872   2.205  0.7467  0.3408 -1.2118
  253DOPC    HB34803   2.848   4.911   2.229  0.5456 -0.5200  0.6323
  253DOPC    C234804   2.984   5.081   2.263  0.0554  0.4850  0.3071
  253DOPC    HS34805   3.092   5.093   2.237  0.3795 -1.6724  0.4810
  253DOPC   O2134806   2.973   5.053   2.407  0.5117 -0.5876  0.2912
  253DOPC   C2134807   3.065   5.112   2.486  0.2179  0.3695  0.1648
  253DOPC   O2234808   3.155   5.183   2.444  0.0837 -0.1651 -0.2398
  253DOPC   C2234809   3.016   5.101   2.628 -0.1520 -0.5624  0.1573
  253DOPC   H2R34810   3.048   5.006   2.677 -1.7063 -1.0488  0.2794
  253DOPC   H2S34811   2.905   5.101   2.638  0.0182  0.1660  3.0774
  253DOPC    C334812   2.911   5.208   2.223  0.1915 -0.0901 -0.1677
  253DOPC    HX34813   2.925   5.224   2.114  1.8703  0.1702  0.0650
  253DOPC    HY34814   2.958   5.295   2.273  0.4189 -0.4637  0.2653
  253DOPC   O3134815   2.771   5.190   2.257 -0.6236 -0.0684 -0.1139
  253DOPC   C3134816   2.738   5.218   2.381  0.4737  0.6599 -0.1976
  253DOPC   O3234817   2.803   5.276   2.463  0.3957 -0.2533  0.1158
  253DOPC   C3234818   2.590   5.170   2.401 -0.0363 -0.2374 -0.5917
  253DOPC   H2X34819   2.555   5.202   2.501  1.5200  0.8475 -0.3572
  253DOPC   H2Y34820   2.523   5.222   2.330 -3.1204 -2.0409  0.7489
  253DOPC   C2334821   3.055   5.224   2.717 -0.0071 -0.0623  0.3522
  253DOPC   H3R34822   3.013   5.318   2.676  0.2578  0.0410  0.3136
  253DOPC   H3S34823   3.165   5.225   2.705 -0.0711  0.0631 -0.2449
  253DOPC   C2434824   3.020   5.218   2.863  0.9255 -0.5167  0.4205
  253DOPC   H4R34825   3.081   5.298   2.909  0.5680  0.0446 -0.0695
  253DOPC   H4S34826   3.054   5.121   2.907 -0.1131 -0.7306  0.7886
  253DOPC   C2534827   2.872   5.235   2.904  0.3961 -0.5145  0.1719
  253DOPC   H5R34828   2.800   5.163   2.859  0.4380 -0.0871 -0.6044
  253DOPC   H5S34829   2.843   5.338   2.875 -1.5302 -0.5666  1.7412
  253DOPC   C2634830   2.849   5.235   3.058  0.5681 -0.2767  0.4458
  253DOPC   H6R34831   2.926   5.303   3.103 -0.2276  1.0757 -0.1741
  253DOPC   H6S34832   2.849   5.136   3.108  0.3847  0.3455  1.7391
  253DOPC   C2734833   2.718   5.300   3.098  0.1535 -0.4081 -0.3766
  253DOPC   H7R34834   2.648   5.233   3.043  1.6682 -1.4664 -1.0720
  253DOPC   H7S34835   2.719   5.403   3.057  3.3432 -0.4078 -0.5234
  253DOPC   C2834836   2.664   5.281   3.242 -0.4961  0.0354  0.4829
  253DOPC   H8R34837   2.632   5.175   3.239  0.1151 -0.1327 -0.8364
  253DOPC   H8S34838   2.562   5.323   3.255 -0.5293 -0.3177  1.4450
  253DOPC   C2934839   2.761   5.321   3.353  1.0106  0.3379  0.3160
  253DOPC   H9R34840   2.755   5.424   3.390  0.3978 -0.1461  1.6154
  253DOPC  C21034841   2.856   5.241   3.400  0.5592 -0.0036  0.0250
  253DOPC  H10R34842   2.922   5.277   3.481  2.1302 -1.1969 -0.6562
  253DOPC  C21134843   2.868   5.092   3.362 -0.3757  0.0656  0.1083
  253DOPC  H11R34844   2.966   5.085   3.311 -0.1460  0.4237  0.4907
  253DOPC  H11S34845   2.793   5.041   3.298 -0.4521 -1.1534  1.1170
  253DOPC  C21234846   2.884   5.016   3.493  0.0645 -0.2942 -0.3845
  253DOPC  H12R34847   2.950   5.059   3.571  1.2647 -2.5255 -0.0865
  253DOPC  H12S34848   2.931   4.915   3.484 -0.8060 -0.6142 -1.4787
  253DOPC  C21334849   2.757   4.987   3.576  0.2400 -0.0407 -0.1090
  253DOPC  H13R34850   2.683   4.930   3.516 -0.0820  0.5988 -0.3262
  253DOPC  H13S34851   2.711   5.083   3.608 -3.6230 -1.4317 -0.9349
  253DOPC  C21434852   2.796   4.893   3.694  0.4872 -0.4903  0.4729
  253DOPC  H14R34853   2.907   4.896   3.705  0.5030  1.6362  0.0398
  253DOPC  H14S34854   2.776   4.789   3.659  0.2946  0.4242 -2.3571
  253DOPC  C21534855   2.730   4.933   3.825 -0.5793 -0.2443  0.3193
  253DOPC  H15R34856   2.751   4.857   3.903  1.7538  0.6668  0.6406
  253DOPC  H15S34857   2.620   4.935   3.806 -0.9427 -0.3672  2.2466
  253DOPC  C21634858   2.765   5.076   3.865 -0.4075 -0.3696 -0.0459
  253DOPC  H16R34859   2.723   5.149   3.792  0.2284  1.3010  1.2029
  253DOPC  H16S34860   2.873   5.100   3.877 -0.6948 -0.0342  2.3256
  253DOPC  C21734861   2.689   5.139   3.987 -0.1576  0.0604 -0.6926
  253DOPC  H17R34862   2.720   5.085   4.079 -0.0106 -0.8614 -1.2647
  253DOPC  H17S34863   2.580   5.117   3.980 -0.4306  0.5474  1.3229
  253DOPC  C21834864   2.702   5.285   4.018 -0.1568 -0.3551 -0.8794
  253DOPC  H18R34865   2.650   5.345   3.941 -1.5470  1.0215  1.0179
  253DOPC  H18S34866   2.808   5.318   4.021  0.0517 -1.0421 -0.5819
  253DOPC  H18T34867   2.657   5.312   4.116 -0.9882 -1.2415 -1.0066
  253DOPC   C3334868   2.589   5.021   2.379 -0.5664  0.2145 -0.2616
  253DOPC   H3X34869   2.622   4.997   2.275 -0.9319 -3.3948  0.3317
  253DOPC   H3Y34870   2.486   4.979   2.372 -0.5115 -0.4795  2.3667
  253DOPC   C3434871   2.664   4.933   2.478  0.2489 -0.3848 -0.1878
  253DOPC   H4X34872   2.773   4.932   2.457  0.0561  2.2640 -1.7501
  253DOPC   H4Y34873   2.618   4.834   2.457 -1.0845 -0.5300  2.9515
  253DOPC   C3534874   2.648   4.972   2.622 -0.4976 -0.0828 -0.4518
  253DOPC   H5X34875   2.538   4.985   2.637 -0.4566  2.0419 -1.5340
  253DOPC   H5Y34876   2.677   5.078   2.639 -1.7554 -0.3427  5.1043
  253DOPC   C3634877   2.715   4.881   2.725  0.0764  0.1643  0.0722
  253DOPC   H6X34878   2.684   4.779   2.691  0.3104 -0.4120  1.5058
  253DOPC   H6Y34879   2.822   4.903   2.707 -0.5348  1.6383 -2.2089
  253DOPC   C3734880   2.671   4.903   2.873  0.3495 -0.0727  0.4848
  253DOPC   H7X34881   2.635   5.008   2.887  0.0161 -0.2620  1.1016
  253DOPC   H7Y34882   2.580   4.841   2.887  1.9315 -2.0726  2.6049
  253DOPC   C3834883   2.772   4.849   2.981 -0.0246 -0.3887 -0.7308
  253DOPC   H8X34884   2.873   4.888   2.954 -0.1534  0.7715  0.4133
  253DOPC   H8Y34885   2.777   4.739   2.964  2.1406 -0.3195 -0.8599
  253DOPC   C3934886   2.721   4.883   3.116 -0.6515 -0.0054  0.3196
  253DOPC   H9X34887   2.694   4.990   3.117  0.4582  0.3587 -1.7870
  253DOPC  C31034888   2.707   4.807   3.220  0.3454 -1.0633 -0.1695
  253DOPC  H10X34889   2.663   4.868   3.300  1.0429  1.1405 -1.3804
  253DOPC  C31134890   2.750   4.661   3.232  0.1892  0.3448 -0.0621
  253DOPC  H11X34891   2.837   4.642   3.166 -1.3836  1.4428 -2.5965
  253DOPC  H11Y34892   2.667   4.592   3.206  0.6223 -0.2003 -0.0177
  253DOPC  C31234893   2.791   4.635   3.380 -0.3895 -0.2986 -0.5519
  253DOPC  H12X34894   2.703   4.626   3.449  0.0547  2.3706  0.4755
  253DOPC  H12Y34895   2.851   4.714   3.430  0.5524  0.4624 -2.7831
  253DOPC  C31334896   2.867   4.507   3.392  0.3194  1.2359  0.6397
  253DOPC  H13X34897   2.790   4.427   3.383 -0.7128  2.3193 -0.5236
  253DOPC  H13Y34898   2.949   4.505   3.317 -0.4184  1.7342 -0.2001
  253DOPC  C31434899   2.928   4.499   3.536 -0.8476 -0.8764  0.0528
  253DOPC  H14X34900   2.999   4.584   3.544 -1.6032 -0.4494  4.5249
  253DOPC  H14Y34901   2.860   4.525   3.620 -0.2113  0.3973  0.1973
  253DOPC  C31534902   2.996   4.372   3.581 -0.2150 -0.0187  0.1616
  253DOPC  H15X34903   3.077   4.351   3.507 -1.0737 -1.0484 -0.5306
  253DOPC  H15Y34904   2.924   4.288   3.565  0.1261 -0.3604  0.4144
  253DOPC  C31634905   3.043   4.373   3.725  0.0462  0.2573 -0.0695
  253DOPC  H16X34906   2.960   4.363   3.797 -1.3487  0.2308 -1.6230
  253DOPC  H16Y34907   3.096   4.275   3.730  0.0667  0.2292 -0.7191
  253DOPC  C31734908   3.125   4.494   3.757 -0.2262  0.3119 -1.0696
  253DOPC  H17X34909   3.186   4.507   3.665 -0.2135 -1.1226 -1.2792
  253DOPC  H17Y34910   3.055   4.581   3.764 -0.9365 -0.2497 -1.0819
  253DOPC  C31834911   3.222   4.495   3.882 -0.6811  0.1924 -0.4201
  253DOPC  H18X34912   3.308   4.430   3.854  0.4452  2.3567 -2.3965
  253DOPC  H18Y34913   3.269   4.595   3.894 -0.2588 -0.0407 -0.1153
  253DOPC  H18Z34914   3.183   4.460   3.980  0.3774  0.6876  0.1883
  254DOPC     N34915   0.926   4.826   1.421 -0.0693  0.3282  0.5487
  254DOPC   C1234916   1.039   4.852   1.523 -0.3579 -0.2272 -0.1114
  254DOPC  H12A34917   1.012   4.933   1.589  0.5261  1.5073 -1.7624
  254DOPC  H12B34918   1.130   4.879   1.473 -0.5139  0.7471  0.1194
  254DOPC   C1334919   0.902   4.959   1.346 -0.0324 -0.7840 -0.2093
  254DOPC  H13A34920   0.812   4.966   1.287  0.6217  2.0022 -1.0095
  254DOPC  H13B34921   0.891   5.045   1.411  0.9816 -1.0579  0.3605
  254DOPC  H13C34922   0.987   4.975   1.281  1.0878 -0.8125  1.1946
  254DOPC   C1434923   0.797   4.783   1.471 -0.0153  0.2316 -0.5689
  254DOPC  H14A34924   0.739   4.844   1.538 -2.4812 -2.0107 -0.4969
  254DOPC  H14B34925   0.731   4.747   1.393  0.0312  0.0199 -0.5101
  254DOPC  H14C34926   0.811   4.689   1.523  0.8089 -0.9294 -2.7504
  254DOPC   C1534927   0.985   4.723   1.334  0.1445  0.6736 -0.5169
  254DOPC  H15A34928   1.090   4.746   1.324  0.6710 -0.7360  1.3359
  254DOPC  H15B34929   0.946   4.709   1.234 -0.2013  0.9063 -0.4170
  254DOPC  H15C34930   0.987   4.626   1.380 -1.1836  0.6540 -0.4517
  254DOPC   C1134931   1.066   4.731   1.619  0.5178  0.2294 -0.0354
  254DOPC  H11A34932   1.125   4.768   1.706 -0.0669 -1.0984  0.9660
  254DOPC  H11B34933   0.969   4.711   1.669  0.7744 -2.1044 -0.3269
  254DOPC     P34934   1.280   4.605   1.554  0.5234  0.0194  0.7571
  254DOPC   O1334935   1.338   4.707   1.467 -0.2563 -0.4110 -0.4258
  254DOPC   O1434936   1.318   4.464   1.522 -0.0428 -0.0393  0.1873
  254DOPC   O1234937   1.119   4.614   1.560 -0.1084  0.2909  0.2149
  254DOPC   O1134938   1.321   4.637   1.699 -0.0412 -0.6942  0.9419
  254DOPC    C134939   1.304   4.543   1.802 -0.6683 -0.1661 -0.1897
  254DOPC    HA34940   1.402   4.492   1.811 -0.8730 -0.7432 -1.1600
  254DOPC    HB34941   1.226   4.465   1.787 -1.4810  0.8519 -1.3847
  254DOPC    C234942   1.271   4.618   1.929 -0.6190 -0.3362 -0.0007
  254DOPC    HS34943   1.173   4.670   1.923 -1.2686 -1.4222  0.5905
  254DOPC   O2134944   1.391   4.705   1.950  0.2562  0.6151 -0.7419
  254DOPC   C2134945   1.364   4.807   2.038  0.0340  0.5408  0.3960
  254DOPC   O2234946   1.251   4.841   2.076 -0.2187 -0.4186  0.3526
  254DOPC   C2234947   1.491   4.868   2.091 -0.0410  0.2958  0.0543
  254DOPC   H2R34948   1.514   4.952   2.023 -0.8642 -0.5881 -1.3679
  254DOPC   H2S34949   1.578   4.798   2.080 -0.2649 -0.1072  0.7721
  254DOPC    C334950   1.273   4.515   2.049  0.2391  0.2025  0.0019
  254DOPC    HX34951   1.381   4.499   2.071  0.1595 -0.6060 -0.1620
  254DOPC    HY34952   1.228   4.419   2.017  2.1632 -0.3435 -1.2635
  254DOPC   O3134953   1.238   4.567   2.172  0.0783 -0.0378 -0.0625
  254DOPC   C3134954   1.111   4.552   2.216  0.0925  0.9772 -0.1799
  254DOPC   O3234955   1.029   4.476   2.165  0.1349  0.5694  0.0096
  254DOPC   C3234956   1.085   4.646   2.333  0.6076 -0.1464  0.1317
  254DOPC   H2X34957   1.152   4.619   2.418  0.7972 -0.3803 -0.0920
  254DOPC   H2Y34958   1.109   4.751   2.305  1.7710 -0.4428 -0.0495
  254DOPC   C2334959   1.478   4.932   2.235 -0.4401  0.0810  0.1566
  254DOPC   H3R34960   1.394   5.004   2.232 -1.6060 -1.2454 -0.3012
  254DOPC   H3S34961   1.568   4.991   2.261 -1.6884  1.8902  0.4916
  254DOPC   C2434962   1.429   4.837   2.342 -0.1218  0.2907  0.5755
  254DOPC   H4R34963   1.342   4.772   2.317  0.2153  0.2443 -0.5601
  254DOPC   H4S34964   1.395   4.902   2.425 -0.8551  0.9496 -0.2203
  254DOPC   C2534965   1.536   4.747   2.410 -0.1857 -0.5649 -0.4115
  254DOPC   H5R34966   1.624   4.810   2.434 -1.1057  1.9664 -3.1143
  254DOPC   H5S34967   1.588   4.681   2.337  0.9508  1.7442 -1.8098
  254DOPC   C2634968   1.493   4.645   2.510  0.7358 -0.7798 -0.5201
  254DOPC   H6R34969   1.565   4.565   2.539 -0.9795 -1.6418  1.6808
  254DOPC   H6S34970   1.397   4.598   2.481  0.5792 -0.1963 -0.9713
  254DOPC   C2734971   1.453   4.703   2.646 -0.3584 -0.5181 -0.0150
  254DOPC   H7R34972   1.520   4.789   2.668 -0.8113  0.0383 -0.7720
  254DOPC   H7S34973   1.459   4.615   2.715 -1.7014 -1.3375 -0.9013
  254DOPC   C2834974   1.313   4.756   2.647  1.0244 -0.0089  0.7072
  254DOPC   H8R34975   1.242   4.678   2.681 -0.7233  0.2255 -2.0806
  254DOPC   H8S34976   1.285   4.779   2.542  1.6517  1.5671  0.8582
  254DOPC   C2934977   1.290   4.882   2.727  0.0067  0.0526 -0.8654
  254DOPC   H9R34978   1.329   4.964   2.664  0.9801 -0.2690 -0.7008
  254DOPC  C21034979   1.248   4.893   2.853  0.2858 -0.3704 -0.1368
  254DOPC  H10R34980   1.224   4.993   2.894  1.2561 -0.6030  1.0592
  254DOPC  C21134981   1.204   4.772   2.929  0.1701  0.2546  0.0828
  254DOPC  H11R34982   1.252   4.680   2.889  0.7156  0.4237  0.3426
  254DOPC  H11S34983   1.093   4.765   2.935  0.0796  1.4002 -0.0579
  254DOPC  C21234984   1.249   4.771   3.080  0.2820 -0.4563  0.5284
  254DOPC  H12R34985   1.211   4.682   3.135 -2.8646  0.9648  0.8830
  254DOPC  H12S34986   1.216   4.860   3.137  1.2525 -0.2956  0.8507
  254DOPC  C21334987   1.399   4.747   3.086 -0.4860 -0.6786 -0.0372
  254DOPC  H13R34988   1.446   4.810   3.008 -0.4345 -1.3794 -0.5848
  254DOPC  H13S34989   1.416   4.642   3.055 -1.6731 -0.6906 -0.6722
  254DOPC  C21434990   1.460   4.772   3.226 -0.3030 -0.1631  0.6635
  254DOPC  H14R34991   1.437   4.875   3.261  2.3095  0.7084  0.0970
  254DOPC  H14S34992   1.570   4.760   3.209 -0.6074  0.1883 -1.9958
  254DOPC  C21534993   1.405   4.678   3.332 -0.9721  0.4333 -0.1309
  254DOPC  H15R34994   1.376   4.577   3.296 -1.6169  0.7058 -0.3962
  254DOPC  H15S34995   1.309   4.721   3.367  0.3735  3.0408  0.6017
  254DOPC  C21634996   1.495   4.668   3.459  0.9159  0.3971 -0.6046
  254DOPC  H16R34997   1.507   4.770   3.501  0.0747  0.3909 -0.3185
  254DOPC  H16S34998   1.598   4.632   3.440  2.1696  4.2862 -2.1219
  254DOPC  C21734999   1.426   4.584   3.565 -0.2763 -0.4325 -0.9246
  254DOPC  H17R35000   1.409   4.478   3.538  1.0860 -1.3292  1.3720
  254DOPC  H17S35001   1.332   4.638   3.592  0.3791  0.1811  0.2010
  254DOPC  C21835002   1.518   4.561   3.686  0.0250  0.8132 -0.3532
  254DOPC  H18R35003   1.457   4.502   3.758 -0.8084 -0.0307 -1.7063
  254DOPC  H18S35004   1.543   4.654   3.741 -1.7320  0.7829  0.5763
  254DOPC  H18T35005   1.608   4.510   3.646 -0.0790  0.1299  0.2557
  254DOPC   C3335006   0.943   4.635   2.390 -0.0910 -0.3169 -0.6373
  254DOPC   H3X35007   0.926   4.533   2.431 -0.3740  0.5475  1.5002
  254DOPC   H3Y35008   0.877   4.659   2.304 -0.1450  2.5023  0.0964
  254DOPC   C3435009   0.924   4.740   2.503 -0.5232  0.7326 -0.3006
  254DOPC   H4X35010   0.952   4.843   2.471  2.5604 -0.1133 -0.6079
  254DOPC   H4Y35011   0.987   4.705   2.587 -0.9044 -0.5004 -0.5175
  254DOPC   C3535012   0.787   4.733   2.561  0.5837  0.2609 -0.1596
  254DOPC   H5X35013   0.745   4.632   2.545  2.9736 -1.3841  2.8743
  254DOPC   H5Y35014   0.730   4.807   2.501  0.4781 -0.7881 -1.3688
  254DOPC   C3635015   0.780   4.763   2.712  0.6464 -0.4369 -0.0554
  254DOPC   H6X35016   0.857   4.839   2.736  0.5027 -0.1768 -0.4059
  254DOPC   H6Y35017   0.681   4.812   2.726  0.5774  0.4478 -2.9543
  254DOPC   C3735018   0.809   4.643   2.803  0.6497 -0.0171 -0.1769
  254DOPC   H7X35019   0.735   4.566   2.772  2.6604 -1.8146 -0.7505
  254DOPC   H7Y35020   0.911   4.609   2.774  1.5981  0.2682  2.5810
  254DOPC   C3835021   0.786   4.666   2.956  0.3051  0.1995 -0.7302
  254DOPC   H8X35022   0.855   4.746   2.990  1.0398 -0.5011 -0.5720
  254DOPC   H8Y35023   0.819   4.578   3.014 -2.1237 -0.7588 -0.6715
  254DOPC   C3935024   0.648   4.709   2.992  0.7460 -0.5517  0.6391
  254DOPC   H9X35025   0.626   4.815   2.969 -0.1673 -1.0408 -0.8853
  254DOPC  C31035026   0.557   4.631   3.060  0.1953 -0.5987 -0.1145
  254DOPC  H10X35027   0.455   4.670   3.064  1.1117  1.9402  0.4442
  254DOPC  C31135028   0.568   4.493   3.118  0.5064  0.1997  0.1733
  254DOPC  H11X35029   0.667   4.448   3.096  1.1894  1.0043  1.4976
  254DOPC  H11Y35030   0.487   4.427   3.078  0.5391  0.8509 -0.9965
  254DOPC  C31235031   0.568   4.489   3.270 -0.4148  0.0084 -0.1309
  254DOPC  H12X35032   0.629   4.574   3.309 -0.3777  0.5696 -1.3496
  254DOPC  H12Y35033   0.623   4.400   3.305  1.0012  1.5602  1.8778
  254DOPC  C31335034   0.427   4.500   3.336  0.1116  0.2705  0.7800
  254DOPC  H13X35035   0.402   4.608   3.329 -0.6944  0.0386 -0.1256
  254DOPC  H13Y35036   0.357   4.438   3.276  0.5606  0.0395  0.4870
  254DOPC  C31435037   0.434   4.444   3.481  0.5742  0.3954  0.3444
  254DOPC  H14X35038   0.330   4.428   3.516  0.5014 -1.4584 -0.6323
  254DOPC  H14Y35039   0.498   4.354   3.487  2.3571  1.5504 -0.3183
  254DOPC  C31535040   0.498   4.554   3.571 -0.1867  0.6629 -0.5555
  254DOPC  H15X35041   0.448   4.650   3.547 -0.3462  0.3463 -1.5545
  254DOPC  H15Y35042   0.606   4.563   3.547  0.4910 -0.4721  1.7337
  254DOPC  C31635043   0.481   4.520   3.722 -0.7834  0.6135  0.4913
  254DOPC  H16X35044   0.374   4.519   3.752 -1.3770  1.3294 -1.4144
  254DOPC  H16Y35045   0.514   4.415   3.729  0.5227  0.9759  0.0656
  254DOPC  C31735046   0.571   4.607   3.818  0.2396 -0.0804 -0.0762
  254DOPC  H17X35047   0.679   4.584   3.806  0.4505  1.3695 -1.2663
  254DOPC  H17Y35048   0.558   4.716   3.803  2.3778  0.2917  0.4873
  254DOPC  C31835049   0.531   4.580   3.966 -0.5359  0.0556  0.0701
  254DOPC  H18X35050   0.574   4.640   4.049 -0.1166 -1.7461  1.2141
  254DOPC  H18Y35051   0.422   4.578   3.988 -0.3304 -0.1489  1.1037
  254DOPC  H18Z35052   0.560   4.476   3.989 -0.2530  0.4913  1.7931
  255DOPC     N35053   5.683   0.390   2.441 -0.9052 -0.3313  1.0396
  255DOPC   C1235054   5.712   0.415   2.586 -0.2156  0.1010 -0.1515
  255DOPC  H12A35055   5.739   0.519   2.597  0.4669 -0.0875  0.0196
  255DOPC  H12B35056   5.796   0.352   2.611  0.5586  0.3869 -1.8818
  255DOPC   C1335057   5.715   0.244   2.416 -0.4448  0.2960 -0.5055
  255DOPC  H13A35058   5.821   0.228   2.433 -0.2694 -5.0133 -4.2536
  255DOPC  H13B35059   5.653   0.195   2.488  1.4203 -0.4256  0.6964
  255DOPC  H13C35060   5.693   0.206   2.317  2.4407 -0.0831 -1.1101
  255DOPC   C1435061   5.776   0.476   2.356  0.6083 -0.3500  0.9173
  255DOPC  H14A35062   5.762   0.583   2.364  1.0039 -0.1116 -1.1240
  255DOPC  H14B35063   5.880   0.457   2.378  1.4209 -0.9380 -2.7682
  255DOPC  H14C35064   5.768   0.444   2.253  2.5988 -1.8798  1.1693
  255DOPC   C1535065   5.542   0.413   2.395  0.2749  0.2188  0.1151
  255DOPC  H15A35066   5.530   0.408   2.288  1.1947 -1.3943  0.0582
  255DOPC  H15B35067   5.501   0.504   2.437 -0.9153 -0.6048  0.7946
  255DOPC  H15C35068   5.477   0.336   2.432 -2.6969  0.7793 -3.3503
  255DOPC   C1135069   5.605   0.386   2.695 -0.3460  0.0119 -0.1541
  255DOPC  H11A35070   5.653   0.369   2.794  1.2993  0.1433 -0.8998
  255DOPC  H11B35071   5.534   0.471   2.702  0.3955  0.5956  0.5731
  255DOPC     P35072   5.384   0.250   2.694  0.2638  0.1152 -0.5834
  255DOPC   O1335073   5.356   0.110   2.736 -0.6100  0.4015 -0.4429
  255DOPC   O1435074   5.298   0.308   2.593 -0.3499 -0.3041 -0.1969
  255DOPC   O1235075   5.535   0.263   2.662  0.0568 -0.4529  0.0271
  255DOPC   O1135076   5.370   0.329   2.828 -0.0949 -0.6338 -0.6661
  255DOPC    C135077   5.245   0.327   2.899 -0.1605  0.0206  0.1305
  255DOPC    HA35078   5.162   0.275   2.845  0.9614 -0.3640 -1.2840
  255DOPC    HB35079   5.210   0.430   2.919 -4.1897 -1.1442 -0.0633
  255DOPC    C235080   5.255   0.263   3.037 -0.3497  0.0638  1.0940
  255DOPC    HS35081   5.284   0.156   3.028  2.4696  0.7978  0.2424
  255DOPC   O2135082   5.129   0.288   3.094  0.1165 -0.5575 -0.4950
  255DOPC   C2135083   5.058   0.182   3.143 -0.1166  0.0765 -0.8122
  255DOPC   O2235084   5.102   0.073   3.174  0.5675  0.2895  0.0219
  255DOPC   C2235085   4.912   0.217   3.135  0.3130 -0.0611 -0.3769
  255DOPC   H2R35086   4.874   0.191   3.034 -0.4712  0.3099 -0.1799
  255DOPC   H2S35087   4.895   0.326   3.139 -0.5349 -0.1906 -0.3067
  255DOPC    C335088   5.371   0.323   3.125  0.5699  0.0445 -0.0563
  255DOPC    HX35089   5.352   0.432   3.110 -1.7287 -0.5962 -2.6767
  255DOPC    HY35090   5.473   0.306   3.086  0.6705 -2.3760  1.0740
  255DOPC   O3135091   5.363   0.285   3.266  0.2916  0.0867 -0.3483
  255DOPC   C3135092   5.424   0.172   3.298  0.2046 -0.5580  0.1936
  255DOPC   O3235093   5.473   0.095   3.214 -0.2555  0.4912  0.4699
  255DOPC   C3235094   5.430   0.158   3.449  0.4290 -0.4297 -0.3826
  255DOPC   H2X35095   5.533   0.181   3.483 -0.4932  1.5346  1.2857
  255DOPC   H2Y35096   5.360   0.230   3.497  1.0756  1.6397 -2.3769
  255DOPC   C2335097   4.828   0.152   3.252 -0.3713 -0.2146 -0.2573
  255DOPC   H3R35098   4.724   0.192   3.262 -1.2037 -2.4804  0.8660
  255DOPC   H3S35099   4.875   0.180   3.349 -0.2049  1.9438 -0.8951
  255DOPC   C2435100   4.807  -0.004   3.257  0.0674 -0.2463  0.3019
  255DOPC   H4R35101   4.905  -0.045   3.288  1.2247  1.3048 -1.1206
  255DOPC   H4S35102   4.781  -0.041   3.156 -1.5205 -0.9778  0.9500
  255DOPC   C2535103   4.699  -0.037   3.362  0.3979  0.2298  0.5831
  255DOPC   H5R35104   4.611   0.023   3.334  0.0847 -1.4558 -2.5382
  255DOPC   H5S35105   4.729  -0.018   3.467  0.7098 -1.5611  0.8541
  255DOPC   C2635106   4.666  -0.189   3.343  0.5621 -0.2549 -0.5153
  255DOPC   H6R35107   4.756  -0.252   3.357  0.8699  0.3753  0.4167
  255DOPC   H6S35108   4.628  -0.208   3.240  0.2929 -1.4858 -0.2060
  255DOPC   C2735109   4.551  -0.214   3.437 -0.0714  0.7556  0.7131
  255DOPC   H7R35110   4.462  -0.156   3.402 -1.2824 -0.2204  2.0537
  255DOPC   H7S35111   4.572  -0.171   3.537  0.4082  1.9578  0.1051
  255DOPC   C2835112   4.518  -0.370   3.445 -0.2881  0.1916  0.2075
  255DOPC   H8R35113   4.524  -0.413   3.343 -0.2990 -0.3983  0.4496
  255DOPC   H8S35114   4.412  -0.383   3.476 -0.9239  1.5619 -1.2758
  255DOPC   C2935115   4.611  -0.442   3.538  0.2761  0.1571 -0.4190
  255DOPC   H9R35116   4.607  -0.400   3.640 -1.5387  2.2507 -1.2707
  255DOPC  C21035117   4.691  -0.546   3.509 -0.1781  0.0574  0.2955
  255DOPC  H10R35118   4.757  -0.576   3.591  0.9529  1.8677  0.1196
  255DOPC  C21135119   4.707  -0.617   3.372 -0.2214  0.0872  0.3875
  255DOPC  H11R35120   4.814  -0.621   3.342 -0.1993  2.5117 -0.0946
  255DOPC  H11S35121   4.661  -0.574   3.280  1.3027  1.9681  0.4311
  255DOPC  C21235122   4.664  -0.766   3.382 -0.2670  0.8466  0.5234
  255DOPC  H12R35123   4.720  -0.811   3.466 -1.1942 -1.5421 -0.0622
  255DOPC  H12S35124   4.704  -0.810   3.288 -2.6935 -0.2305 -0.0741
  255DOPC  C21335125   4.513  -0.793   3.373 -0.1214  0.5456  0.1546
  255DOPC  H13R35126   4.487  -0.744   3.277 -0.9186 -0.1796 -0.0005
  255DOPC  H13S35127   4.470  -0.740   3.461 -0.7826 -2.7054  1.9463
  255DOPC  C21435128   4.473  -0.937   3.417 -0.0666 -0.4461 -0.0516
  255DOPC  H14R35129   4.550  -1.006   3.376  0.3688  0.2589 -0.4431
  255DOPC  H14S35130   4.370  -0.953   3.378 -0.2863  2.7090 -1.0377
  255DOPC  C21535131   4.468  -0.965   3.572  0.2485 -0.0610 -0.6487
  255DOPC  H15R35132   4.395  -0.890   3.611  1.6871  0.6722  0.7826
  255DOPC  H15S35133   4.563  -0.931   3.618  1.3757 -1.9046 -1.4999
  255DOPC  C21635134   4.448  -1.117   3.610  0.4499  0.3162  0.1712
  255DOPC  H16R35135   4.529  -1.177   3.564  0.3770 -0.8029  1.4392
  255DOPC  H16S35136   4.353  -1.132   3.555 -0.5258  1.9785  1.2904
  255DOPC  C21735137   4.428  -1.158   3.749  0.0479  0.3604 -0.1379
  255DOPC  H17R35138   4.359  -1.088   3.801  0.8893 -0.1995  1.8249
  255DOPC  H17S35139   4.519  -1.157   3.814 -0.8995 -0.1116  1.2378
  255DOPC  C21835140   4.361  -1.298   3.757 -0.1651 -0.3117  0.4862
  255DOPC  H18R35141   4.429  -1.380   3.726 -0.8480 -0.5728 -0.3567
  255DOPC  H18S35142   4.268  -1.301   3.697  0.1426  2.3957 -0.2434
  255DOPC  H18T35143   4.341  -1.315   3.865 -4.8797 -0.1286 -0.1669
  255DOPC   C3335144   5.396   0.015   3.495  0.1114  0.1921 -0.4614
  255DOPC   H3X35145   5.440  -0.067   3.433  0.3287  0.4002 -0.5847
  255DOPC   H3Y35146   5.287  -0.007   3.492 -0.0121  0.2226  1.9994
  255DOPC   C3435147   5.431  -0.007   3.651  0.1977 -0.2965  0.3802
  255DOPC   H4X35148   5.541   0.002   3.663  0.6919 -1.7306 -2.2078
  255DOPC   H4Y35149   5.412  -0.114   3.674  1.3029 -0.9309 -1.4001
  255DOPC   C3535150   5.352   0.081   3.748  0.1245  0.0869 -0.2976
  255DOPC   H5X35151   5.249   0.040   3.740  0.5474 -1.0207 -0.2715
  255DOPC   H5Y35152   5.350   0.189   3.721  2.9178  0.8699  2.0028
  255DOPC   C3635153   5.401   0.056   3.890  0.0249 -0.1561 -0.1031
  255DOPC   H6X35154   5.371  -0.046   3.922 -1.1206  0.5270  1.1195
  255DOPC   H6Y35155   5.512   0.057   3.882  0.1012  0.4920  0.8918
  255DOPC   C3735156   5.334   0.156   3.983  0.1013 -0.3894 -0.5611
  255DOPC   H7X35157   5.379   0.136   4.082  0.8887 -0.3262 -0.8989
  255DOPC   H7Y35158   5.354   0.260   3.949 -0.1789 -0.1041  0.1236
  255DOPC   C3835159   5.179   0.131   3.988 -0.0014  0.3346 -0.1257
  255DOPC   H8X35160   5.161   0.030   4.031 -1.1862  1.4173  2.0455
  255DOPC   H8Y35161   5.131   0.155   3.890 -0.1324  0.6004  0.0022
  255DOPC   C3935162   5.125   0.226   4.092 -0.0218 -0.5006 -0.5388
  255DOPC   H9X35163   5.158   0.331   4.097 -1.2302 -0.1214  0.0468
  255DOPC  C31035164   5.020   0.203   4.177 -0.4810 -0.6816 -0.8834
  255DOPC  H10X35165   4.989   0.287   4.241 -1.2251 -2.1519  0.7926
  255DOPC  C31135166   4.951   0.067   4.197  0.1574 -0.1417 -0.3509
  255DOPC  H11X35167   4.980  -0.004   4.117 -2.6951 -0.4081 -1.2648
  255DOPC  H11Y35168   4.841   0.076   4.192  0.1068 -1.2832 -1.8038
  255DOPC  C31235169   4.976  -0.000   4.335 -0.0950 -0.6575  0.2305
  255DOPC  H12X35170   4.902  -0.081   4.355  0.6149 -1.9692 -2.0522
  255DOPC  H12Y35171   4.971   0.078   4.413  1.6736  2.2262 -2.3242
  255DOPC  C31335172   5.124  -0.045   4.349  0.2812 -0.0919  0.5793
  255DOPC  H13X35173   5.141  -0.134   4.285 -1.2722 -1.2415  1.6638
  255DOPC  H13Y35174   5.200   0.031   4.320  1.8141 -1.1872  1.5451
  255DOPC  C31435175   5.155  -0.098   4.488 -0.3013  0.4363  0.6554
  255DOPC  H14X35176   5.247  -0.160   4.479 -0.2373  0.6205 -0.0830
  255DOPC  H14Y35177   5.166  -0.014   4.560 -1.4480  0.0528  1.3010
  255DOPC  C31535178   5.043  -0.178   4.558  0.4652 -0.3234 -0.5822
  255DOPC  H15X35179   5.008  -0.257   4.489 -1.1382 -0.3589  0.2169
  255DOPC  H15Y35180   4.967  -0.099   4.576  1.1131  0.4134 -1.0134
  255DOPC  C31635181   5.098  -0.246   4.679 -0.6827  0.1721 -1.0222
  255DOPC  H16X35182   5.151  -0.340   4.653 -1.0322  0.1846 -1.8054
  255DOPC  H16Y35183   5.173  -0.181   4.730 -0.5594 -1.5094  1.0844
  255DOPC  C31735184   4.986  -0.280   4.776  0.4415 -0.2132  0.3539
  255DOPC  H17X35185   4.938  -0.189   4.818  1.8270  1.2798 -1.1560
  255DOPC  H17Y35186   4.901  -0.312   4.713  0.4132  0.9353 -0.2060
  255DOPC  C31835187   5.030  -0.367   4.901 -0.5763  0.2295  0.6648
  255DOPC  H18X35188   5.089  -0.457   4.874  0.5249  1.5238 -1.6321
  255DOPC  H18Y35189   5.092  -0.314   4.976  1.3724  0.1649 -0.8121
  255DOPC  H18Z35190   4.935  -0.391   4.953 -0.6779  1.2005  0.9443
  256DOPC     N35191  10.971  10.367   1.683  0.0206  0.3538 -0.1722
  256DOPC   C1235192  10.839  10.394   1.759 -0.1450 -0.5914  0.2092
  256DOPC  H12A35193  10.861  10.475   1.827  1.8090  0.9544 -2.1119
  256DOPC  H12B35194  10.798  10.309   1.813  1.0477 -0.2740  1.6739
  256DOPC   C1335195  10.948  10.242   1.601 -0.4633  0.7287  0.2669
  256DOPC  H13A35196  11.040  10.202   1.562  0.9064  1.3212  2.7094
  256DOPC  H13B35197  10.894  10.171   1.663 -1.2897  2.8504  2.1126
  256DOPC  H13C35198  10.877  10.258   1.521 -1.6895 -1.4326  0.8256
  256DOPC   C1435199  11.089  10.342   1.782  0.0309  0.6504 -0.2970
  256DOPC  H14A35200  11.101  10.239   1.811 -0.9428  0.7140  0.3926
  256DOPC  H14B35201  11.181  10.361   1.731  0.6561 -1.4346 -0.0410
  256DOPC  H14C35202  11.083  10.412   1.864 -1.0711  1.5884 -1.1433
  256DOPC   C1535203  11.002  10.488   1.597 -0.1328  0.2863 -0.0799
  256DOPC  H15A35204  11.072  10.461   1.519 -1.4034 -1.4517 -0.6825
  256DOPC  H15B35205  11.035  10.573   1.655  0.7805  0.8229 -1.3313
  256DOPC  H15C35206  10.912  10.512   1.542 -1.4641 -1.4738  1.2152
  256DOPC   C1135207  10.722  10.440   1.665  0.1417  0.1011 -0.8607
  256DOPC  H11A35208  10.712  10.377   1.574  0.3315  0.3233 -1.0390
  256DOPC  H11B35209  10.628  10.429   1.721  1.1728  0.9878  1.1512
  256DOPC     P35210  10.709  10.696   1.707  0.3221  0.3932 -0.1871
  256DOPC   O1335211  10.605  10.772   1.637 -0.0057 -0.3053 -0.9981
  256DOPC   O1435212  10.829  10.773   1.748 -0.6047  0.5160  0.0076
  256DOPC   O1235213  10.743  10.572   1.612  0.1293  0.4281 -0.3416
  256DOPC   O1135214  10.658  10.626   1.839 -0.2519  0.2446  0.0906
  256DOPC    C135215  10.528  10.640   1.887 -0.1816 -0.7761 -0.5460
  256DOPC    HA35216  10.457  10.581   1.825  1.8646 -1.8981 -1.9579
  256DOPC    HB35217  10.499  10.747   1.882  1.7646 -0.2329 -1.1638
  256DOPC    C235218  10.505  10.586   2.037 -0.9832 -0.4300 -0.5401
  256DOPC    HS35219  10.407  10.611   2.083  0.0149 -0.3502  1.6544
  256DOPC   O2135220  10.606  10.639   2.121  0.2682 -0.2781 -0.4080
  256DOPC   C2135221  10.600  10.772   2.145 -0.1513  0.3111  0.3894
  256DOPC   O2235222  10.502  10.840   2.120 -0.2143 -0.5420 -0.1576
  256DOPC   C2235223  10.717  10.826   2.220  0.2916 -0.5000  0.4383
  256DOPC   H2R35224  10.693  10.931   2.250 -1.3128 -0.9316  0.7610
  256DOPC   H2S35225  10.801  10.844   2.150 -0.2745  3.8036  0.5700
  256DOPC    C335226  10.510  10.430   2.044  0.2668  0.0843 -0.5879
  256DOPC    HX35227  10.611  10.405   2.004  1.8671  4.2390  0.2342
  256DOPC    HY35228  10.442  10.384   1.969  0.7875  0.5913 -1.3983
  256DOPC   O3135229  10.478  10.380   2.180 -0.5792  0.8225  0.1602
  256DOPC   C3135230  10.587  10.341   2.242 -0.2300  0.4273 -0.4404
  256DOPC   O3235231  10.703  10.343   2.200 -0.1578 -0.3235  0.3277
  256DOPC   C3235232  10.559  10.275   2.369  1.5106  1.1385 -0.5974
  256DOPC   H2X35233  10.492  10.187   2.358  0.7770  1.5689  0.3194
  256DOPC   H2Y35234  10.650  10.234   2.418 -0.5864 -1.8476  1.1551
  256DOPC   C2335235  10.791  10.745   2.336  0.4810  0.5828 -0.4263
  256DOPC   H3R35236  10.881  10.803   2.363 -0.2876  0.2522  3.3705
  256DOPC   H3S35237  10.818  10.640   2.312 -0.4079 -0.6436  3.2615
  256DOPC   C2435238  10.709  10.745   2.471  0.6213  0.3170 -0.0607
  256DOPC   H4R35239  10.617  10.685   2.459  0.7427  0.0610  0.2708
  256DOPC   H4S35240  10.677  10.845   2.505  0.4901 -0.7394  3.3133
  256DOPC   C2535241  10.791  10.691   2.586  0.2800  0.0115 -0.1745
  256DOPC   H5R35242  10.891  10.738   2.577 -0.5461  1.9010  0.0789
  256DOPC   H5S35243  10.813  10.582   2.587 -0.4630 -0.1840  2.4779
  256DOPC   C2635244  10.728  10.734   2.718 -0.1071 -0.3804  0.1844
  256DOPC   H6R35245  10.751  10.661   2.799 -1.0826 -0.0319  0.7940
  256DOPC   H6S35246  10.619  10.742   2.698 -0.1313 -2.4883 -0.8076
  256DOPC   C2735247  10.772  10.862   2.793  0.1458 -1.0674 -0.3848
  256DOPC   H7R35248  10.763  10.940   2.714 -0.8934 -2.3804 -1.6218
  256DOPC   H7S35249  10.881  10.852   2.812  0.2038 -0.6356 -0.4671
  256DOPC   C2835250  10.692  10.915   2.919  0.1064 -0.2993  0.0842
  256DOPC   H8R35251  10.585  10.926   2.892  0.4091 -0.3626 -1.2075
  256DOPC   H8S35252  10.731  11.012   2.957 -0.0332 -0.5150  0.8068
  256DOPC   C2935253  10.706  10.797   3.015  0.1019 -0.7900 -0.0543
  256DOPC   H9R35254  10.628  10.720   3.008 -1.1196  0.3447  0.5209
  256DOPC  C21035255  10.789  10.788   3.120 -0.4043 -0.5219 -0.6249
  256DOPC  H10R35256  10.785  10.692   3.174 -2.1993 -1.4669 -2.3012
  256DOPC  C21135257  10.896  10.896   3.156 -0.4033 -0.3069 -0.0549
  256DOPC  H11R35258  10.882  10.981   3.085 -0.7017  0.1661  0.5537
  256DOPC  H11S35259  11.003  10.868   3.159 -0.4220 -0.3133  1.3005
  256DOPC  C21235260  10.892  10.949   3.305 -0.5265 -0.3345 -0.1975
  256DOPC  H12R35261  10.977  11.018   3.322 -0.4656 -0.5881  0.6038
  256DOPC  H12S35262  10.913  10.866   3.376  3.2735 -0.2851 -1.0752
  256DOPC  C21335263  10.758  11.023   3.347 -0.3327  0.2018  0.5582
  256DOPC  H13R35264  10.671  10.955   3.336  0.2866 -0.2104 -3.6524
  256DOPC  H13S35265  10.733  11.093   3.265  1.0871 -0.1235 -0.1871
  256DOPC  C21435266  10.778  11.082   3.482  0.4010  0.4229  0.4018
  256DOPC  H14R35267  10.861  11.155   3.466  0.5950  0.3681  1.1108
  256DOPC  H14S35268  10.817  11.020   3.565 -0.3118  1.0083  1.2024
  256DOPC  C21535269  10.648  11.153   3.529  0.4604  0.4811 -0.3255
  256DOPC  H15R35270  10.575  11.079   3.571  1.2794 -1.3181 -1.9276
  256DOPC  H15S35271  10.587  11.182   3.441  0.8355 -2.1023 -1.5417
  256DOPC  C21635272  10.687  11.257   3.635  0.4694  0.1616 -0.0326
  256DOPC  H16R35273  10.744  11.337   3.583  0.4444  0.0023 -0.2998
  256DOPC  H16S35274  10.753  11.222   3.718  3.7834  1.4929 -1.9193
  256DOPC  C21735275  10.575  11.334   3.700  0.0104  0.0366 -0.0236
  256DOPC  H17R35276  10.498  11.262   3.737 -0.1743  0.4431  0.3937
  256DOPC  H17S35277  10.526  11.401   3.626 -2.0100 -0.5058  0.7437
  256DOPC  C21835278  10.624  11.428   3.811 -0.2774 -0.0757 -0.2091
  256DOPC  H18R35279  10.675  11.366   3.888 -1.2938 -0.9596 -0.2270
  256DOPC  H18S35280  10.546  11.499   3.847  0.5845  0.6492  0.2659
  256DOPC  H18T35281  10.702  11.493   3.767 -1.3887 -0.0470 -2.2316
  256DOPC   C3335282  10.498  10.373   2.475  0.3692  0.1198  0.4801
  256DOPC   H3X35283  10.414  10.431   2.431  1.0731 -1.3144 -3.1923
  256DOPC   H3Y35284  10.576  10.442   2.514  1.3268 -1.0522  0.6806
  256DOPC   C3435285  10.441  10.300   2.591 -0.4124  0.0018 -0.4987
  256DOPC   H4X35286  10.523  10.234   2.628  0.5248  1.8835  0.9505
  256DOPC   H4Y35287  10.362  10.233   2.549  0.2819  0.5187 -2.7384
  256DOPC   C3535288  10.395  10.381   2.712 -0.4844  0.4343 -0.5486
  256DOPC   H5X35289  10.307  10.446   2.694 -1.9809 -1.4795 -0.4995
  256DOPC   H5Y35290  10.480  10.443   2.748 -0.3677 -0.6787  1.2152
  256DOPC   C3635291  10.359  10.291   2.829 -0.4448 -0.7004 -0.2480
  256DOPC   H6X35292  10.286  10.218   2.788 -1.0266  1.4501 -3.3759
  256DOPC   H6Y35293  10.460  10.247   2.847  0.3000  0.5786 -1.1109
  256DOPC   C3735294  10.315  10.362   2.955  0.0021  0.2157 -0.1473
  256DOPC   H7X35295  10.248  10.448   2.932  0.0060 -0.2837 -2.2945
  256DOPC   H7Y35296  10.254  10.293   3.015 -1.0738  3.9569  3.5106
  256DOPC   C3835297  10.437  10.417   3.038 -0.0556 -0.5116  0.3711
  256DOPC   H8X35298  10.400  10.474   3.126 -1.0110  0.0952 -0.4078
  256DOPC   H8Y35299  10.491  10.496   2.982  0.4101  0.5863  2.2593
  256DOPC   C3935300  10.545  10.313   3.085  0.9286 -0.5313 -0.6685
  256DOPC   H9X35301  10.498  10.229   3.138 -1.1056  0.7777 -0.2810
  256DOPC  C31035302  10.679  10.317   3.088 -0.2982 -0.0917 -0.1472
  256DOPC  H10X35303  10.729  10.228   3.129 -2.4913 -1.8920 -1.1785
  256DOPC  C31135304  10.773  10.417   3.022  0.7546  0.0920  0.2202
  256DOPC  H11X35305  10.872  10.396   3.067  1.2541  1.7055 -0.0797
  256DOPC  H11Y35306  10.740  10.514   3.064  1.3292  0.0748  0.7246
  256DOPC  C31235307  10.777  10.413   2.872  0.3879  0.2103 -0.3061
  256DOPC  H12X35308  10.854  10.479   2.826 -0.5300  0.6763 -1.2257
  256DOPC  H12Y35309  10.679  10.453   2.838  0.4599  0.8252  0.1934
  256DOPC  C31335310  10.808  10.269   2.813  0.1071  0.4932  0.0309
  256DOPC  H13X35311  10.896  10.231   2.869 -0.4769 -1.7188 -0.4313
  256DOPC  H13Y35312  10.725  10.200   2.841  0.5092 -0.3269 -0.7372
  256DOPC  C31435313  10.832  10.269   2.664 -0.1135  0.1171 -0.6478
  256DOPC  H14X35314  10.744  10.311   2.609 -0.1371 -0.7683 -1.3252
  256DOPC  H14Y35315  10.922  10.318   2.622  0.7383 -0.4649  0.4608
  256DOPC  C31535316  10.829  10.126   2.614 -0.9301  0.3470 -0.2947
  256DOPC  H15X35317  10.839  10.134   2.504 -1.9816  0.3558 -0.4021
  256DOPC  H15Y35318  10.732  10.077   2.635 -0.1507 -0.3814  1.9554
  256DOPC  C31635319  10.944  10.034   2.679  0.1181 -0.1352  0.9952
  256DOPC  H16X35320  10.911  10.021   2.785  2.5575 -0.0787  1.8410
  256DOPC  H16Y35321  10.936   9.937   2.626 -0.7772  1.1670 -1.3763
  256DOPC  C31735322  11.089  10.080   2.663  0.1370 -0.3933 -0.1209
  256DOPC  H17X35323  11.103  10.080   2.553 -4.8081 -1.7564 -0.9939
  256DOPC  H17Y35324  11.102  10.181   2.708  1.1277 -1.2841  1.6687
  256DOPC  C31835325  11.180   9.986   2.742  0.0479 -0.3715  0.0918
  256DOPC  H18X35326  11.162   9.878   2.724 -0.6536 -0.6588  2.2147
  256DOPC  H18Y35327  11.287  10.012   2.727 -0.0565 -0.7762 -1.4635
  256DOPC  H18Z35328  11.179  10.012   2.850 -1.8201 -3.1337  0.8547
  257DOPC     N35329   1.886   3.620   1.450 -0.3257 -0.1372 -0.1012
  257DOPC   C1235330   1.741   3.625   1.484  0.2670 -0.6123  0.3157
  257DOPC  H12A35331   1.695   3.551   1.421  0.1720 -1.2848  1.1613
  257DOPC  H12B35332   1.701   3.720   1.453  0.2637 -0.0900  1.8247
  257DOPC   C1335333   1.907   3.621   1.301 -0.1967 -0.2499  0.3787
  257DOPC  H13A35334   2.011   3.598   1.283 -1.0569 -5.3143  0.4487
  257DOPC  H13B35335   1.847   3.551   1.245 -4.2006  2.9548  0.1656
  257DOPC  H13C35336   1.869   3.711   1.254 -1.4602 -0.6614  0.5866
  257DOPC   C1435337   1.940   3.495   1.506  0.1053 -0.1293  1.0103
  257DOPC  H14A35338   2.044   3.485   1.482 -0.2998  0.3166 -1.1396
  257DOPC  H14B35339   1.932   3.506   1.613 -0.4946 -0.0691  0.9665
  257DOPC  H14C35340   1.897   3.407   1.462  1.3728  0.7191 -2.1936
  257DOPC   C1535341   1.966   3.734   1.499  0.0792 -0.3368 -0.0651
  257DOPC  H15A35342   2.071   3.708   1.493 -0.0295 -1.0301  0.7559
  257DOPC  H15B35343   1.939   3.732   1.603  1.2073 -2.5109  0.2633
  257DOPC  H15C35344   1.952   3.832   1.458  0.3968  0.3397  1.3794
  257DOPC   C1135345   1.687   3.590   1.632 -0.9110  0.2122  0.4595
  257DOPC  H11A35346   1.578   3.612   1.629 -1.0150 -0.3474 -1.4027
  257DOPC  H11B35347   1.709   3.482   1.643  0.5749  0.4180 -0.2385
  257DOPC     P35348   1.724   3.814   1.759  0.1943  0.4270 -0.5593
  257DOPC   O1335349   1.640   3.869   1.649  0.1977  0.1962  0.7073
  257DOPC   O1435350   1.855   3.871   1.781 -0.3643 -0.4131  0.1765
  257DOPC   O1235351   1.752   3.658   1.738 -0.5030  0.6144 -0.3007
  257DOPC   O1135352   1.656   3.816   1.897  0.0222 -0.6044 -0.4796
  257DOPC    C135353   1.564   3.723   1.943 -0.1006  0.6290  0.6050
  257DOPC    HA35354   1.533   3.658   1.859  2.1391  0.1180  0.1281
  257DOPC    HB35355   1.470   3.774   1.974 -1.9665 -2.3177  0.1532
  257DOPC    C235356   1.635   3.643   2.051 -0.2636 -0.2395 -0.2831
  257DOPC    HS35357   1.720   3.591   2.002 -1.4742 -1.7557 -0.8588
  257DOPC   O2135358   1.548   3.548   2.115  0.2661  0.0155  0.3506
  257DOPC   C2135359   1.532   3.435   2.052 -0.6566 -0.2585 -0.4226
  257DOPC   O2235360   1.569   3.411   1.936  0.2020  0.5283 -0.4059
  257DOPC   C2235361   1.469   3.328   2.142 -0.8412  0.1291  0.4352
  257DOPC   H2R35362   1.391   3.281   2.078  0.3905 -1.1954 -0.1426
  257DOPC   H2S35363   1.427   3.373   2.235  1.5506 -3.0252  3.2738
  257DOPC    C335364   1.710   3.737   2.158 -0.1367  0.4711 -0.0743
  257DOPC    HX35365   1.631   3.807   2.195  0.1738 -0.0323  1.6600
  257DOPC    HY35366   1.774   3.803   2.097 -2.1409  2.0767 -0.5632
  257DOPC   O3135367   1.778   3.670   2.263  0.1013 -0.0059  0.2253
  257DOPC   C3135368   1.897   3.624   2.233  0.1922 -0.2759  0.0640
  257DOPC   O3235369   1.951   3.640   2.119  0.3913  0.3417 -0.3315
  257DOPC   C3235370   1.955   3.544   2.349  0.5411 -0.3386  0.6674
  257DOPC   H2X35371   1.872   3.491   2.401 -0.7433 -0.9510 -1.8648
  257DOPC   H2Y35372   2.018   3.470   2.295 -1.4219 -1.5831 -0.0106
  257DOPC   C2335373   1.571   3.215   2.182  0.3925 -0.2664  0.6257
  257DOPC   H3R35374   1.614   3.161   2.095 -1.2189  1.7554 -1.5563
  257DOPC   H3S35375   1.518   3.131   2.232 -1.0270 -1.9507 -3.3137
  257DOPC   C2435376   1.685   3.267   2.270  0.0614 -0.4292 -0.0219
  257DOPC   H4R35377   1.637   3.312   2.360 -2.3209 -1.4025 -0.7447
  257DOPC   H4S35378   1.747   3.346   2.222 -0.0941 -0.9335 -1.0797
  257DOPC   C2535379   1.773   3.145   2.321 -0.5754  0.1929  0.6513
  257DOPC   H5R35380   1.812   3.102   2.227  1.2658  0.3122  1.3229
  257DOPC   H5S35381   1.707   3.069   2.368 -0.4670 -2.1407 -2.6072
  257DOPC   C2635382   1.893   3.179   2.410 -0.2109  0.1420 -0.0429
  257DOPC   H6R35383   1.940   3.269   2.366  1.2356 -0.7954 -0.4772
  257DOPC   H6S35384   1.964   3.095   2.396  2.5751  2.2036  0.9041
  257DOPC   C2735385   1.856   3.191   2.557 -0.4803 -0.4703  0.0101
  257DOPC   H7R35386   1.801   3.287   2.568 -1.6593 -1.0420 -0.6603
  257DOPC   H7S35387   1.951   3.208   2.612 -0.8220  1.3836  0.1116
  257DOPC   C2835388   1.767   3.080   2.624 -0.2789  0.3329  0.2629
  257DOPC   H8R35389   1.814   2.996   2.569  3.0953  2.1713  0.0463
  257DOPC   H8S35390   1.666   3.092   2.581  0.6555  0.9943 -1.8847
  257DOPC   C2935391   1.772   3.065   2.771  0.2185  0.5027 -0.8327
  257DOPC   H9R35392   1.720   3.147   2.822  1.4745  1.5082 -1.1032
  257DOPC  C21035393   1.827   2.974   2.854 -0.6195  0.6963 -0.2488
  257DOPC  H10R35394   1.821   2.976   2.963 -0.2768 -1.3798 -0.1430
  257DOPC  C21135395   1.909   2.853   2.822  0.7793 -0.3131 -0.5811
  257DOPC  H11R35396   2.014   2.861   2.855  0.9310  0.2634 -1.1822
  257DOPC  H11S35397   1.912   2.855   2.711 -1.0331 -1.3709 -0.6921
  257DOPC  C21235398   1.849   2.722   2.871  0.4868  0.5840  0.5852
  257DOPC  H12R35399   1.916   2.646   2.825 -1.4918  0.8243 -2.9719
  257DOPC  H12S35400   1.752   2.695   2.824  3.0444 -3.2498 -3.2334
  257DOPC  C21335401   1.840   2.702   3.020  0.1617  0.3455 -0.2633
  257DOPC  H13R35402   1.769   2.617   3.032  0.5512  0.1169  0.4751
  257DOPC  H13S35403   1.790   2.792   3.062  0.0731  0.7946 -1.3026
  257DOPC  C21435404   1.974   2.679   3.078  0.0470 -0.0546 -0.1061
  257DOPC  H14R35405   2.053   2.746   3.038 -0.1231 -0.0838 -0.4932
  257DOPC  H14S35406   2.008   2.578   3.047  0.7354  0.3452 -0.6889
  257DOPC  C21535407   1.980   2.705   3.234 -0.4446  0.1758  0.2472
  257DOPC  H15R35408   2.084   2.689   3.269 -0.1929  0.6533 -0.2680
  257DOPC  H15S35409   1.923   2.629   3.291 -2.1923 -0.2100 -1.8919
  257DOPC  C21635410   1.930   2.841   3.283 -0.4687 -0.7245  0.3164
  257DOPC  H16R35411   1.822   2.847   3.256  0.0222  0.4117 -1.5757
  257DOPC  H16S35412   1.976   2.925   3.226  0.7875  0.0842  2.3946
  257DOPC  C21735413   1.958   2.858   3.434 -0.4252  0.3016 -0.2137
  257DOPC  H17R35414   2.059   2.827   3.467 -0.8414 -1.7218 -0.7137
  257DOPC  H17S35415   1.893   2.793   3.497 -0.3153 -1.3490 -1.7192
  257DOPC  C21835416   1.933   3.004   3.470 -0.3166 -0.4097  0.6577
  257DOPC  H18R35417   1.827   3.029   3.447 -0.8467 -3.7054 -1.1259
  257DOPC  H18S35418   1.991   3.066   3.399  1.2880 -1.6429  0.8486
  257DOPC  H18T35419   1.950   3.032   3.576  0.5344  4.0682 -0.4577
  257DOPC   C3335420   2.023   3.621   2.468 -0.4832  0.0117  0.1972
  257DOPC   H3X35421   1.949   3.681   2.526  1.1884  1.3932  0.9727
  257DOPC   H3Y35422   2.096   3.692   2.424 -2.1783  1.0462 -1.0621
  257DOPC   C3435423   2.085   3.532   2.573 -0.3593  0.2264  0.4635
  257DOPC   H4X35424   2.169   3.469   2.534 -0.6572  0.0108  0.1593
  257DOPC   H4Y35425   2.013   3.456   2.609 -1.7944  2.0037  1.4854
  257DOPC   C3535426   2.143   3.607   2.695 -0.4636 -0.7376 -0.1111
  257DOPC   H5X35427   2.061   3.662   2.746  0.4102 -0.8350  1.4764
  257DOPC   H5Y35428   2.215   3.676   2.646 -0.0716 -1.2014 -0.1907
  257DOPC   C3635429   2.205   3.507   2.797  0.5862  0.1957  0.5871
  257DOPC   H6X35430   2.131   3.433   2.833 -1.5259  0.2699 -3.0908
  257DOPC   H6Y35431   2.291   3.461   2.743  0.0865  0.5250 -0.5370
  257DOPC   C3735432   2.261   3.593   2.909 -0.2474  0.3275 -0.4499
  257DOPC   H7X35433   2.343   3.658   2.872  1.0615 -0.9108  0.1723
  257DOPC   H7Y35434   2.186   3.666   2.946 -0.5289 -0.7095  1.1394
  257DOPC   C3835435   2.320   3.509   3.018 -0.0072  0.9408 -0.1480
  257DOPC   H8X35436   2.382   3.576   3.082 -0.3608 -0.8350  2.1808
  257DOPC   H8Y35437   2.394   3.445   2.965 -1.5598 -1.0633 -0.0182
  257DOPC   C3935438   2.212   3.433   3.096 -0.2404  0.2390 -0.8266
  257DOPC   H9X35439   2.147   3.369   3.035 -0.9153  1.1454 -1.0815
  257DOPC  C31035440   2.175   3.435   3.227  0.3032  0.3088  0.0202
  257DOPC  H10X35441   2.091   3.374   3.264  1.1900  0.1772  1.9026
  257DOPC  C31135442   2.242   3.523   3.331  0.2629 -0.2369 -0.7319
  257DOPC  H11X35443   2.353   3.531   3.323  0.4182  0.4698  1.4029
  257DOPC  H11Y35444   2.215   3.476   3.428 -2.0008 -0.8132 -1.5870
  257DOPC  C31235445   2.190   3.665   3.335  0.1837 -0.7448  0.0483
  257DOPC  H12X35446   2.080   3.680   3.335  0.2090 -0.3151  1.9270
  257DOPC  H12Y35447   2.236   3.709   3.244 -1.0931  1.7910  0.5715
  257DOPC  C31335448   2.254   3.746   3.455  0.2054  0.3885  0.7574
  257DOPC  H13X35449   2.228   3.694   3.549  2.2027 -1.0243  0.5921
  257DOPC  H13Y35450   2.365   3.739   3.457  0.2253  0.7172  0.8555
  257DOPC  C31435451   2.218   3.892   3.455  0.2721  0.1440  0.5136
  257DOPC  H14X35452   2.266   3.938   3.366  2.0735 -1.7442  0.4309
  257DOPC  H14Y35453   2.110   3.881   3.433  0.5277 -2.6250  0.2386
  257DOPC  C31535454   2.245   3.974   3.583 -0.1577 -0.1057 -0.4840
  257DOPC  H15X35455   2.354   3.968   3.605 -0.6772 -0.1634  2.6146
  257DOPC  H15Y35456   2.194   3.925   3.669  0.5002  0.6190  0.3429
  257DOPC  C31635457   2.188   4.115   3.581  0.3642  0.1297 -0.0333
  257DOPC  H16X35458   2.216   4.169   3.488 -0.5875  1.4283  0.3952
  257DOPC  H16Y35459   2.079   4.103   3.567 -0.3371  0.8956  3.7080
  257DOPC  C31735460   2.207   4.194   3.714  0.5888 -0.2508 -0.1738
  257DOPC  H17X35461   2.176   4.130   3.800  1.7859 -0.6622 -0.0215
  257DOPC  H17Y35462   2.318   4.199   3.712  0.7191 -2.4233 -1.5441
  257DOPC  C31835463   2.143   4.327   3.742  0.3227  0.0040  0.0316
  257DOPC  H18X35464   2.175   4.377   3.836 -1.0905  3.3691 -1.1367
  257DOPC  H18Y35465   2.179   4.399   3.666  0.8720 -0.6877 -0.3767
  257DOPC  H18Z35466   2.032   4.327   3.747  0.3567  0.9379  1.1064
  258DOPC     N35467   8.540   1.618   1.814 -0.3805  0.3049  1.1037
  258DOPC   C1235468   8.573   1.562   1.950 -0.2736  0.2070  0.0692
  258DOPC  H12A35469   8.508   1.603   2.026  1.3845  0.9399  1.1472
  258DOPC  H12B35470   8.677   1.585   1.963  0.0411 -0.7785 -0.5614
  258DOPC   C1335471   8.393   1.612   1.799 -0.4371 -0.5919 -0.3187
  258DOPC  H13A35472   8.357   1.663   1.887 -1.6357 -1.9508  0.0223
  258DOPC  H13B35473   8.341   1.648   1.711 -3.2815 -3.2226  0.1226
  258DOPC  H13C35474   8.364   1.509   1.814  0.7734 -0.8195  0.5688
  258DOPC   C1435475   8.605   1.533   1.708 -0.2960  0.7605  0.0653
  258DOPC  H14A35476   8.712   1.545   1.701 -0.0497 -1.0272  0.4816
  258DOPC  H14B35477   8.577   1.431   1.726 -0.3087  0.7413 -0.0626
  258DOPC  H14C35478   8.555   1.562   1.617  0.2611  0.9266 -0.1963
  258DOPC   C1535479   8.585   1.758   1.800 -0.1458  0.1927 -0.7460
  258DOPC  H15A35480   8.522   1.834   1.844 -2.5309 -1.1401 -1.6879
  258DOPC  H15B35481   8.581   1.780   1.694 -3.0694  0.7915 -0.6042
  258DOPC  H15C35482   8.690   1.765   1.824  0.4925 -3.0722 -2.0170
  258DOPC   C1135483   8.570   1.410   1.968  0.7193 -0.5564 -0.0277
  258DOPC  H11A35484   8.656   1.366   1.913  0.6185 -0.4132 -0.3004
  258DOPC  H11B35485   8.590   1.393   2.076 -0.0576 -0.4755  0.1358
  258DOPC     P35486   8.398   1.220   1.966  0.6576 -0.2445 -0.1666
  258DOPC   O1335487   8.501   1.116   1.952  0.1581 -0.4192 -0.5475
  258DOPC   O1435488   8.263   1.199   1.908 -0.2959  1.4581 -0.3555
  258DOPC   O1235489   8.449   1.357   1.921 -0.0612 -0.5030 -0.1215
  258DOPC   O1135490   8.373   1.258   2.119  0.7099 -0.0998 -0.1758
  258DOPC    C135491   8.339   1.156   2.214  0.2158  0.2627 -0.3079
  258DOPC    HA35492   8.405   1.161   2.303  1.0591 -2.1639 -0.7140
  258DOPC    HB35493   8.343   1.052   2.175 -1.2443 -0.2551  0.7880
  258DOPC    C235494   8.193   1.162   2.259  0.4557  0.5318 -0.3406
  258DOPC    HS35495   8.139   1.141   2.165 -0.3091 -0.6988  0.3466
  258DOPC   O2135496   8.170   1.295   2.311  0.1245  0.2686  0.1745
  258DOPC   C2135497   8.042   1.329   2.293  0.3647  0.1578 -0.5296
  258DOPC   O2235498   7.960   1.276   2.222 -0.9525 -0.3941 -0.5764
  258DOPC   C2235499   8.012   1.459   2.362 -0.2374 -0.2396  0.4459
  258DOPC   H2R35500   7.949   1.523   2.297 -2.7190 -2.5596  0.3477
  258DOPC   H2S35501   8.105   1.517   2.376 -0.1252 -0.2398 -0.2681
  258DOPC    C335502   8.129   1.051   2.346 -0.2082 -0.0086 -0.5215
  258DOPC    HX35503   8.136   0.950   2.301  0.0303  0.3189 -1.2383
  258DOPC    HY35504   8.019   1.062   2.348 -0.1817  0.3776 -0.9936
  258DOPC   O3135505   8.178   1.053   2.484  0.4888 -1.0134 -0.4065
  258DOPC   C3135506   8.282   0.983   2.501 -0.0790 -0.3716 -0.0099
  258DOPC   O3235507   8.336   0.916   2.414  0.4452 -0.1483 -0.4143
  258DOPC   C3235508   8.338   0.996   2.641 -0.3810  0.2930 -0.4939
  258DOPC   H2X35509   8.431   0.935   2.648 -0.5328  0.1309  0.2779
  258DOPC   H2Y35510   8.366   1.104   2.649  0.9370 -0.1242  1.1314
  258DOPC   C2335511   7.925   1.425   2.489 -0.0926 -0.1783 -0.6530
  258DOPC   H3R35512   7.829   1.383   2.451 -1.3520  2.2122 -0.3666
  258DOPC   H3S35513   7.900   1.527   2.527 -0.5511 -1.2615  2.1903
  258DOPC   C2435514   7.991   1.351   2.604 -0.3302 -0.4834 -0.0451
  258DOPC   H4R35515   8.016   1.248   2.570 -1.9385 -1.0522  0.4207
  258DOPC   H4S35516   7.924   1.347   2.692 -0.8054  2.4126 -0.1758
  258DOPC   C2535517   8.120   1.426   2.640 -0.5966  0.0698 -0.2358
  258DOPC   H5R35518   8.100   1.533   2.664 -1.5439  0.4177 -2.3578
  258DOPC   H5S35519   8.197   1.431   2.559  0.0054 -0.6184  0.2776
  258DOPC   C2635520   8.183   1.369   2.763 -0.3324  0.0395  0.1237
  258DOPC   H6R35521   8.211   1.264   2.740 -0.8576 -0.2350  0.7118
  258DOPC   H6S35522   8.116   1.375   2.851  0.1580  1.3382  0.4332
  258DOPC   C2735523   8.306   1.445   2.810 -0.0509  0.4593  0.1828
  258DOPC   H7R35524   8.265   1.531   2.867 -0.2016 -0.2182  1.1218
  258DOPC   H7S35525   8.356   1.476   2.715  3.7462 -0.1255  1.8103
  258DOPC   C2835526   8.400   1.367   2.904 -0.0714  0.0849  0.1839
  258DOPC   H8R35527   8.421   1.267   2.859 -1.3164 -1.0588  2.0302
  258DOPC   H8S35528   8.345   1.351   2.999 -0.9910  2.8205  0.2176
  258DOPC   C2935529   8.537   1.424   2.923  1.0251 -1.0353 -0.1849
  258DOPC   H9R35530   8.590   1.444   2.829 -2.2738 -1.9377 -2.4318
  258DOPC  C21035531   8.594   1.463   3.039  0.3884 -0.2277 -0.0608
  258DOPC  H10R35532   8.692   1.513   3.032  0.9529 -1.5539 -2.4781
  258DOPC  C21135533   8.525   1.455   3.176 -0.3061  0.6125 -0.0935
  258DOPC  H11R35534   8.416   1.475   3.164 -0.5336 -0.1317  0.6131
  258DOPC  H11S35535   8.569   1.534   3.239  0.0465  1.8886 -1.8573
  258DOPC  C21235536   8.544   1.308   3.222  0.7113  0.8224  0.3954
  258DOPC  H12R35537   8.646   1.270   3.198 -0.9691 -4.8667  0.8969
  258DOPC  H12S35538   8.487   1.248   3.147 -0.5382 -0.3409  2.2116
  258DOPC  C21335539   8.506   1.278   3.367 -0.4241  0.5229 -0.9743
  258DOPC  H13R35540   8.537   1.172   3.380  0.2850  1.0197  2.1283
  258DOPC  H13S35541   8.398   1.284   3.390 -0.1405  0.1880  0.5990
  258DOPC  C21435542   8.585   1.363   3.461  0.2052 -0.1479 -0.2414
  258DOPC  H14R35543   8.551   1.469   3.454  3.1050  1.1358  2.4054
  258DOPC  H14S35544   8.694   1.356   3.440  0.2767 -0.7857  0.3183
  258DOPC  C21535545   8.559   1.319   3.609  0.4249 -0.3696  0.0777
  258DOPC  H15R35546   8.591   1.214   3.626  1.2747 -0.2539 -0.7172
  258DOPC  H15S35547   8.449   1.330   3.620  0.1364  2.2552 -3.5430
  258DOPC  C21635548   8.636   1.401   3.712  0.3753 -0.5572 -0.9869
  258DOPC  H16R35549   8.617   1.511   3.707 -0.8604 -0.6193  1.0576
  258DOPC  H16S35550   8.742   1.373   3.694 -0.0300 -2.1911 -0.9973
  258DOPC  C21735551   8.604   1.354   3.859  0.1771 -0.1647  0.3110
  258DOPC  H17R35552   8.611   1.244   3.870  1.6333  0.0798  2.6501
  258DOPC  H17S35553   8.506   1.398   3.886 -0.0900 -0.8339  0.4535
  258DOPC  C21835554   8.705   1.414   3.959  0.3271  0.0623 -0.1618
  258DOPC  H18R35555   8.669   1.441   4.061  0.1714  1.1144 -0.4752
  258DOPC  H18S35556   8.741   1.512   3.920 -0.0834 -0.0402 -0.8192
  258DOPC  H18T35557   8.800   1.357   3.963  0.1590 -0.2372 -0.4171
  258DOPC   C3335558   8.225   0.968   2.747 -0.2647 -0.4165 -1.1731
  258DOPC   H3X35559   8.197   0.861   2.735  0.4988 -1.0256  1.6618
  258DOPC   H3Y35560   8.137   1.034   2.734  0.5508  1.0215  0.2226
  258DOPC   C3435561   8.280   0.976   2.893  0.1431 -0.2658 -0.0044
  258DOPC   H4X35562   8.310   1.083   2.903 -2.2625  0.4670  0.0703
  258DOPC   H4Y35563   8.368   0.911   2.907  1.6969  1.1958 -2.2932
  258DOPC   C3535564   8.179   0.942   3.001  0.2618 -0.0774  0.1026
  258DOPC   H5X35565   8.142   0.840   2.979 -1.9862  0.9767 -1.5409
  258DOPC   H5Y35566   8.086   1.002   2.989 -0.5514 -0.9555  1.7448
  258DOPC   C3635567   8.239   0.956   3.148  0.6178  0.4357  0.7182
  258DOPC   H6X35568   8.334   0.910   3.182  0.7710  0.8037  0.7925
  258DOPC   H6Y35569   8.265   1.064   3.153 -0.6791  0.8072  0.0985
  258DOPC   C3735570   8.124   0.936   3.253 -0.0375 -0.4023  0.6750
  258DOPC   H7X35571   8.033   0.992   3.220  2.1260  1.7519 -2.1143
  258DOPC   H7Y35572   8.086   0.832   3.246 -0.5496 -0.3671  2.3498
  258DOPC   C3835573   8.161   0.971   3.403 -0.3977 -0.3526  0.2080
  258DOPC   H8X35574   8.254   0.919   3.436 -0.8715 -2.6394 -1.7837
  258DOPC   H8Y35575   8.077   0.927   3.459 -0.9313  1.0768  0.5694
  258DOPC   C3935576   8.178   1.119   3.428  0.2967 -0.8418  0.1354
  258DOPC   H9X35577   8.178   1.181   3.337 -1.4089 -1.0167 -0.0231
  258DOPC  C31035578   8.185   1.176   3.551  0.4316  0.3422 -0.2072
  258DOPC  H10X35579   8.195   1.286   3.558  1.2285  0.1600  2.5621
  258DOPC  C31135580   8.188   1.106   3.686  0.0386  0.4419  0.5092
  258DOPC  H11X35581   8.156   1.000   3.696  0.3817  0.4922  2.5555
  258DOPC  H11Y35582   8.115   1.152   3.756 -1.5103 -0.2947 -0.5826
  258DOPC  C31235583   8.332   1.107   3.747 -0.3151  0.5496  0.4075
  258DOPC  H12X35584   8.372   1.211   3.751 -0.6827  0.6592  1.5869
  258DOPC  H12Y35585   8.406   1.050   3.686  0.3522 -0.5093  2.1430
  258DOPC  C31335586   8.341   1.041   3.884 -0.0327  0.5839  0.5548
  258DOPC  H13X35587   8.288   0.944   3.872 -0.2052  0.7623 -0.2266
  258DOPC  H13Y35588   8.447   1.017   3.902  0.3737  0.5155 -1.5850
  258DOPC  C31435589   8.295   1.135   3.999 -0.0748 -0.0728  0.9739
  258DOPC  H14X35590   8.322   1.240   3.975 -2.5595  0.5193  0.5359
  258DOPC  H14Y35591   8.185   1.129   4.012 -0.0929  0.1863  0.9358
  258DOPC  C31535592   8.356   1.083   4.131  0.1661 -0.2904  0.3878
  258DOPC  H15X35593   8.336   1.162   4.206 -0.3707  0.0748 -0.1308
  258DOPC  H15Y35594   8.463   1.054   4.127  1.1601  2.8428  1.2227
  258DOPC  C31635595   8.284   0.957   4.187  0.1473 -0.3316 -0.0532
  258DOPC  H16X35596   8.173   0.966   4.183  0.1709  1.2559  1.7534
  258DOPC  H16Y35597   8.316   0.871   4.124  0.1386  0.5816 -1.3385
  258DOPC  C31735598   8.307   0.935   4.335 -0.2203 -0.1303  0.1850
  258DOPC  H17X35599   8.248   1.007   4.396  0.6760  0.1262  0.7746
  258DOPC  H17Y35600   8.259   0.838   4.356 -1.8513  0.5183 -0.3728
  258DOPC  C31835601   8.453   0.936   4.387 -0.1636  0.7488  0.3748
  258DOPC  H18X35602   8.486   1.041   4.394  2.9714  0.3381 -4.0997
  258DOPC  H18Y35603   8.476   0.890   4.486  1.9967  0.8771 -0.0256
  258DOPC  H18Z35604   8.517   0.881   4.315 -0.0172  3.0310 -1.3372
  259DOPC     N35605   6.675   7.827   2.138  0.8723 -0.1481  0.1582
  259DOPC   C1235606   6.754   7.922   2.043 -0.5039 -0.3931 -0.7522
  259DOPC  H12A35607   6.749   8.018   2.093  0.0494 -0.9589  0.4412
  259DOPC  H12B35608   6.701   7.933   1.950  0.3897  1.0486 -1.1163
  259DOPC   C1335609   6.738   7.806   2.268 -0.0988  0.0475  0.0256
  259DOPC  H13A35610   6.845   7.791   2.257 -0.2120 -0.2809 -0.6953
  259DOPC  H13B35611   6.733   7.888   2.338  0.8104 -1.5680  2.0760
  259DOPC  H13C35612   6.694   7.717   2.310 -0.0181  0.0708  0.1602
  259DOPC   C1435613   6.680   7.693   2.070  0.1594 -0.0552 -0.3026
  259DOPC  H14A35614   6.620   7.622   2.125 -2.6518  1.5014 -1.2220
  259DOPC  H14B35615   6.622   7.710   1.981  1.2681  2.6795 -0.5933
  259DOPC  H14C35616   6.780   7.663   2.042  0.4750  1.4017 -0.8257
  259DOPC   C1535617   6.527   7.863   2.164 -0.4217  0.0845  0.7481
  259DOPC  H15A35618   6.479   7.870   2.068  2.0655  2.3217 -0.4412
  259DOPC  H15B35619   6.512   7.961   2.206 -0.6105  0.3921 -0.0261
  259DOPC  H15C35620   6.470   7.792   2.223  0.3487 -1.0707  0.1292
  259DOPC   C1135621   6.905   7.905   2.019 -0.2557 -0.0814  0.2362
  259DOPC  H11A35622   6.927   7.811   1.964  1.5371 -1.5132  3.1452
  259DOPC  H11B35623   6.947   7.988   1.959  2.0549 -0.4351  1.2530
  259DOPC     P35624   7.097   7.805   2.168  0.0369 -0.2504 -0.1730
  259DOPC   O1335625   7.208   7.839   2.075  0.4114 -0.0259 -0.0070
  259DOPC   O1435626   7.032   7.671   2.164 -0.5775  0.7742  0.2135
  259DOPC   O1235627   6.977   7.909   2.143 -0.6683  0.0433  1.0305
  259DOPC   O1135628   7.139   7.843   2.319 -0.5628 -0.2157 -0.5547
  259DOPC    C135629   7.039   7.896   2.404 -0.3982 -0.0480  0.5778
  259DOPC    HA35630   6.965   7.818   2.433 -1.3021  0.7834  0.5679
  259DOPC    HB35631   6.984   7.982   2.361  0.0813 -0.8790 -1.8926
  259DOPC    C235632   7.099   7.963   2.529 -0.2097 -0.1440  0.6682
  259DOPC    HS35633   7.164   8.049   2.500 -1.2570  0.7780  0.9781
  259DOPC   O2135634   7.175   7.863   2.596  0.2546 -0.3595  0.1960
  259DOPC   C2135635   7.270   7.914   2.688  1.1172  0.6953  0.2137
  259DOPC   O2235636   7.318   8.022   2.679 -0.2315 -0.2273 -0.0673
  259DOPC   C2235637   7.310   7.799   2.784 -0.1679 -0.2642 -0.1209
  259DOPC   H2R35638   7.409   7.765   2.747 -1.0831 -1.9330 -1.1236
  259DOPC   H2S35639   7.236   7.716   2.780 -1.6649  0.9912  0.1986
  259DOPC    C335640   6.992   8.025   2.622 -0.2553  0.0297 -0.2493
  259DOPC    HX35641   6.903   7.959   2.613  0.7176 -1.3845  0.3446
  259DOPC    HY35642   6.977   8.121   2.568  1.5302  0.9480  0.7960
  259DOPC   O3135643   7.023   8.051   2.763 -0.4404  0.2930 -0.1803
  259DOPC   C3135644   7.059   8.177   2.804  0.4358  0.1361 -0.6034
  259DOPC   O3235645   7.097   8.264   2.736  0.0379  0.4329  0.2913
  259DOPC   C3235646   7.062   8.181   2.960 -0.0596  0.0009 -0.9545
  259DOPC   H2X35647   7.003   8.263   3.007  1.2822  0.0799  0.6781
  259DOPC   H2Y35648   7.032   8.080   2.993  0.8523 -0.2072 -0.7576
  259DOPC   C2335649   7.307   7.849   2.930 -0.3761  0.7370  0.1585
  259DOPC   H3R35650   7.206   7.883   2.961 -1.0587 -1.1617  0.1791
  259DOPC   H3S35651   7.379   7.932   2.941  0.8632  0.1492 -2.6720
  259DOPC   C2435652   7.368   7.749   3.028 -0.1411  0.5854  0.2922
  259DOPC   H4R35653   7.464   7.704   2.993 -0.7360  1.2565 -2.4144
  259DOPC   H4S35654   7.298   7.663   3.029  0.1561  0.3091 -0.8257
  259DOPC   C2535655   7.388   7.800   3.167 -0.4128 -0.3985 -0.4684
  259DOPC   H5R35656   7.289   7.830   3.206 -0.0409  1.7642 -1.0766
  259DOPC   H5S35657   7.446   7.895   3.171 -0.0674 -0.6427  1.7740
  259DOPC   C2635658   7.450   7.684   3.247  0.0296  0.0617  0.2710
  259DOPC   H6R35659   7.539   7.665   3.184 -1.4877  0.8943 -2.2601
  259DOPC   H6S35660   7.373   7.604   3.236 -1.1162  1.1856 -0.1573
  259DOPC   C2735661   7.485   7.731   3.387 -0.3440 -0.4177 -0.1854
  259DOPC   H7R35662   7.385   7.759   3.427  1.0275  4.8562  0.2783
  259DOPC   H7S35663   7.553   7.818   3.380  0.7014 -1.1820  0.1349
  259DOPC   C2835664   7.557   7.624   3.471  0.0061  0.5858  0.4888
  259DOPC   H8R35665   7.656   7.609   3.423 -0.1223 -1.2592  0.7108
  259DOPC   H8S35666   7.502   7.530   3.448 -2.6141  1.7830  1.4799
  259DOPC   C2935667   7.571   7.645   3.615  0.5389  0.6189 -0.0359
  259DOPC   H9R35668   7.550   7.748   3.645  2.7917  0.2646  3.4640
  259DOPC  C21035669   7.573   7.544   3.712  0.0612 -0.7924  0.0629
  259DOPC  H10R35670   7.588   7.583   3.814  0.3046  0.1073 -0.3122
  259DOPC  C21135671   7.586   7.397   3.686 -0.2821 -0.3205 -0.1272
  259DOPC  H11R35672   7.572   7.358   3.583  0.7221  0.8738 -0.7437
  259DOPC  H11S35673   7.490   7.369   3.735 -1.5080  2.0280 -1.0523
  259DOPC  C21235674   7.689   7.320   3.758 -0.5147  0.2821  0.2622
  259DOPC  H12R35675   7.721   7.366   3.854 -0.4304 -0.9104  0.8192
  259DOPC  H12S35676   7.780   7.305   3.696 -0.8920 -0.4609 -0.1259
  259DOPC  C21335677   7.640   7.179   3.773  0.8148 -0.1680 -0.1433
  259DOPC  H13R35678   7.648   7.137   3.670  1.1233  2.1330 -1.1061
  259DOPC  H13S35679   7.533   7.168   3.800  0.4851  0.9723 -0.9104
  259DOPC  C21435680   7.735   7.103   3.858 -0.0918  1.2370  0.0025
  259DOPC  H14R35681   7.745   7.157   3.956  0.7860  0.7611  0.1902
  259DOPC  H14S35682   7.841   7.108   3.826 -0.0634 -0.9086 -0.3389
  259DOPC  C21535683   7.707   6.952   3.883  0.1747 -0.4248  0.2490
  259DOPC  H15R35684   7.612   6.932   3.937 -0.2003 -0.2982 -0.3405
  259DOPC  H15S35685   7.786   6.917   3.952 -0.9857 -1.2389  1.1971
  259DOPC  C21635686   7.702   6.873   3.751  1.1146 -0.8089 -0.4025
  259DOPC  H16R35687   7.790   6.899   3.689  0.4771  1.4689 -0.4427
  259DOPC  H16S35688   7.616   6.911   3.692 -0.2745  1.6343  2.8991
  259DOPC  C21735689   7.667   6.725   3.779 -0.0944 -0.7264 -0.0703
  259DOPC  H17R35690   7.577   6.729   3.843  0.3479 -0.2560  0.5302
  259DOPC  H17S35691   7.744   6.686   3.848 -1.2503 -0.3969  1.4516
  259DOPC  C21835692   7.646   6.638   3.652 -0.1139 -0.6635 -0.4783
  259DOPC  H18R35693   7.637   6.531   3.679 -1.2137 -1.2079 -2.8295
  259DOPC  H18S35694   7.737   6.645   3.589  1.3557  2.8648  1.7100
  259DOPC  H18T35695   7.555   6.674   3.599  2.7017  0.3291 -5.1806
  259DOPC   C3335696   7.208   8.198   3.012 -0.4470  0.5358  0.2885
  259DOPC   H3X35697   7.241   8.301   2.988  0.2451  0.3247  0.3188
  259DOPC   H3Y35698   7.286   8.152   2.948 -0.3486  1.3312 -0.1772
  259DOPC   C3435699   7.225   8.169   3.155  0.1577 -0.2798  0.3709
  259DOPC   H4X35700   7.225   8.059   3.163  0.7236 -0.3544 -0.5331
  259DOPC   H4Y35701   7.142   8.220   3.209 -1.1919 -1.6017 -0.3881
  259DOPC   C3535702   7.354   8.216   3.224 -0.0450 -0.4397 -0.0166
  259DOPC   H5X35703   7.354   8.326   3.234  1.5596 -0.4967  0.9756
  259DOPC   H5Y35704   7.440   8.184   3.162  1.2757  0.5124  1.2486
  259DOPC   C3635705   7.388   8.155   3.361  0.6011  0.2245 -0.5785
  259DOPC   H6X35706   7.407   8.046   3.350 -0.8549 -0.0342 -0.6688
  259DOPC   H6Y35707   7.483   8.199   3.399  1.2120 -0.8440 -0.8220
  259DOPC   C3735708   7.276   8.171   3.460 -0.1091  0.0229 -0.1526
  259DOPC   H7X35709   7.234   8.273   3.449 -0.5665 -0.1625 -0.1481
  259DOPC   H7Y35710   7.191   8.104   3.434 -1.2624  0.2464  2.7186
  259DOPC   C3835711   7.317   8.134   3.603 -0.5389 -0.9575 -0.7744
  259DOPC   H8X35712   7.394   8.208   3.634 -1.1546 -0.1486 -1.1260
  259DOPC   H8Y35713   7.373   8.038   3.599  1.1729 -0.0131 -0.5315
  259DOPC   C3935714   7.211   8.128   3.710 -0.0650  0.2009 -0.1376
  259DOPC   H9X35715   7.126   8.194   3.685 -0.9000 -0.3671  1.0781
  259DOPC  C31035716   7.211   8.058   3.823 -0.0166 -0.1485 -0.0323
  259DOPC  H10X35717   7.130   8.074   3.895  0.3139  0.2897  0.2442
  259DOPC  C31135718   7.322   7.961   3.865 -0.2355 -0.5370  0.0213
  259DOPC  H11X35719   7.415   7.974   3.806  0.7146 -1.4403  1.2657
  259DOPC  H11Y35720   7.281   7.858   3.871 -0.0170 -0.5824  0.8998
  259DOPC  C31235721   7.375   8.001   4.008  0.4626 -0.2725 -0.0589
  259DOPC  H12X35722   7.438   7.921   4.052 -0.6204  0.3102  2.7361
  259DOPC  H12Y35723   7.293   8.008   4.083  0.2773 -2.5813  0.0304
  259DOPC  C31335724   7.456   8.131   4.012 -0.5119 -0.5421 -0.2423
  259DOPC  H13X35725   7.549   8.118   3.952  0.4060  2.7536  0.3087
  259DOPC  H13Y35726   7.401   8.206   3.952  0.6396 -0.7904 -1.6598
  259DOPC  C31435727   7.490   8.182   4.155  0.3587  0.4513  0.3383
  259DOPC  H14X35728   7.393   8.192   4.208  0.6259  0.8475  0.7599
  259DOPC  H14Y35729   7.555   8.112   4.212  0.4589 -0.8541 -1.3177
  259DOPC  C31535730   7.552   8.328   4.163 -0.5377 -0.3527  0.5011
  259DOPC  H15X35731   7.482   8.396   4.110 -0.2060  0.3507  0.9476
  259DOPC  H15Y35732   7.640   8.328   4.096  1.6639  1.7653  3.1344
  259DOPC  C31635733   7.591   8.375   4.307 -0.3189 -0.1243 -0.6149
  259DOPC  H16X35734   7.506   8.429   4.353 -0.8259 -0.2781 -1.3478
  259DOPC  H16Y35735   7.605   8.282   4.366 -0.9368 -0.3250 -0.7770
  259DOPC  C31735736   7.714   8.453   4.308  0.4328  0.0233  0.2770
  259DOPC  H17X35737   7.796   8.394   4.262 -0.6728 -1.3681  0.0425
  259DOPC  H17Y35738   7.714   8.550   4.253  0.8161  1.3626  2.5275
  259DOPC  C31835739   7.760   8.496   4.452 -0.2670 -0.6288  0.5025
  259DOPC  H18X35740   7.671   8.543   4.498 -1.8809 -3.3521  0.3874
  259DOPC  H18Y35741   7.772   8.403   4.512 -0.1639 -0.6744  0.4107
  259DOPC  H18Z35742   7.851   8.554   4.478 -1.6994  0.8511  2.5425
  260DOPC     N35743   5.766  11.428   2.292  0.0836  0.2569  0.5763
  260DOPC   C1235744   5.796  11.315   2.202  0.2867 -0.2579  0.1199
  260DOPC  H12A35745   5.709  11.257   2.176  0.2030  0.4580 -1.2716
  260DOPC  H12B35746   5.867  11.251   2.252  1.2607  0.1249 -0.7168
  260DOPC   C1335747   5.897  11.498   2.331 -0.3867 -0.5234  0.3338
  260DOPC  H13A35748   5.928  11.562   2.250  1.6827  1.4974  2.5656
  260DOPC  H13B35749   5.868  11.570   2.406  0.3095 -1.2914  1.3733
  260DOPC  H13C35750   5.974  11.434   2.371 -0.7190 -0.8340  0.4905
  260DOPC   C1435751   5.715  11.370   2.427  0.3872 -0.1063 -0.3250
  260DOPC  H14A35752   5.786  11.305   2.475  2.4341  0.8003 -1.9369
  260DOPC  H14B35753   5.691  11.456   2.488  1.0391  0.5141 -0.9294
  260DOPC  H14C35754   5.619  11.322   2.417  0.1649 -0.1594  1.7001
  260DOPC   C1535755   5.672  11.523   2.242  0.0223  0.8002  0.1181
  260DOPC  H15A35756   5.686  11.531   2.135  0.1987 -2.5536 -0.2027
  260DOPC  H15B35757   5.669  11.619   2.292 -1.2091  1.6936 -1.5926
  260DOPC  H15C35758   5.573  11.482   2.255  0.5707 -0.7731 -0.4381
  260DOPC   C1135759   5.855  11.346   2.068  0.3917  0.3622 -0.2549
  260DOPC  H11A35760   5.837  11.276   1.983 -1.9654 -0.3000  0.7161
  260DOPC  H11B35761   5.805  11.436   2.027  0.4026  0.5764  0.2012
  260DOPC     P35762   6.091  11.234   2.076 -0.3393  0.0543 -0.3372
  260DOPC   O1335763   6.228  11.272   2.031  0.3702 -0.3293  0.1892
  260DOPC   O1435764   6.015  11.125   2.010  0.2342  0.2222 -0.2674
  260DOPC   O1235765   5.998  11.362   2.075 -0.7444 -0.2548 -0.2669
  260DOPC   O1135766   6.104  11.197   2.233 -0.3226 -0.1035 -0.0041
  260DOPC    C135767   6.106  11.059   2.277 -0.7998  0.5562  0.1889
  260DOPC    HA35768   6.202  11.034   2.326 -0.3332 -1.9598 -1.8125
  260DOPC    HB35769   6.076  10.988   2.197 -2.0858  0.8855  0.3586
  260DOPC    C235770   6.010  11.038   2.391 -0.0119  0.0245  0.5987
  260DOPC    HS35771   5.914  11.087   2.365 -0.9585 -1.6606  0.7625
  260DOPC   O2135772   6.072  11.093   2.509 -0.3563  0.5902  0.1348
  260DOPC   C2135773   5.988  11.144   2.601 -0.1789  0.6705  0.1639
  260DOPC   O2235774   5.870  11.170   2.583  0.3700  0.4151 -0.7940
  260DOPC   C2235775   6.062  11.170   2.735  0.2140 -0.3518  0.3793
  260DOPC   H2R35776   6.167  11.197   2.712  0.8239 -1.9665  1.1973
  260DOPC   H2S35777   6.058  11.081   2.800 -0.3647 -0.3613  0.3328
  260DOPC    C335778   5.960  10.886   2.415  0.5185 -0.6129 -0.3215
  260DOPC    HX35779   6.036  10.838   2.480  1.7914  0.5365 -0.9163
  260DOPC    HY35780   5.964  10.831   2.319  0.9483 -1.8798  0.4052
  260DOPC   O3135781   5.832  10.871   2.478 -0.8187  0.0389 -0.5428
  260DOPC   C3135782   5.724  10.892   2.392 -0.5858 -0.2747  0.0730
  260DOPC   O3235783   5.733  10.944   2.285 -0.4822  0.2625  0.0003
  260DOPC   C3235784   5.594  10.860   2.466  0.4281  0.3305 -0.0556
  260DOPC   H2X35785   5.610  10.868   2.575  0.2100  1.5176 -0.0889
  260DOPC   H2Y35786   5.517  10.932   2.429 -0.5175  0.9975  2.9791
  260DOPC   C2335787   6.012  11.296   2.810 -0.4320 -0.4518 -0.1365
  260DOPC   H3R35788   5.905  11.281   2.835 -0.9033  0.5124 -1.4618
  260DOPC   H3S35789   6.014  11.381   2.739 -0.6766  1.4554  2.0227
  260DOPC   C2435790   6.095  11.320   2.940 -0.1083  0.9750 -0.1559
  260DOPC   H4R35791   6.075  11.238   3.013  1.5195  2.3640  1.9871
  260DOPC   H4S35792   6.047  11.409   2.987 -1.7346 -0.2425  0.5986
  260DOPC   C2535793   6.246  11.343   2.924 -1.0865  0.4646 -0.5354
  260DOPC   H5R35794   6.258  11.424   2.849 -2.1832  0.9489 -0.2124
  260DOPC   H5S35795   6.303  11.263   2.871  2.6303  2.9184 -0.6175
  260DOPC   C2635796   6.317  11.382   3.052  0.1026  0.0919 -0.4716
  260DOPC   H6R35797   6.421  11.401   3.017  0.3905  2.8403  1.5353
  260DOPC   H6S35798   6.323  11.294   3.120 -0.2404  0.1837 -0.3173
  260DOPC   C2735799   6.264  11.511   3.118  0.5586  0.2235  0.0252
  260DOPC   H7R35800   6.167  11.481   3.163  1.1531 -1.3398  0.3365
  260DOPC   H7S35801   6.245  11.577   3.031 -0.0726  0.0995  0.0597
  260DOPC   C2835802   6.352  11.568   3.233  0.0758  0.1964 -0.3225
  260DOPC   H8R35803   6.327  11.506   3.321 -2.3823 -0.8202 -1.6299
  260DOPC   H8S35804   6.307  11.668   3.254  0.0889  0.3903 -1.1750
  260DOPC   C2935805   6.499  11.579   3.208 -0.5093 -0.9509  0.3075
  260DOPC   H9R35806   6.530  11.618   3.110  0.2299  0.3510  1.0343
  260DOPC  C21035807   6.603  11.538   3.284 -0.5376  0.0094  0.2778
  260DOPC  H10R35808   6.702  11.562   3.241 -0.5774  0.2930  0.3453
  260DOPC  C21135809   6.594  11.464   3.417 -0.6270 -0.8107  0.5805
  260DOPC  H11R35810   6.634  11.360   3.416 -2.9286 -1.7703 -1.5495
  260DOPC  H11S35811   6.486  11.463   3.442 -0.8937  1.3751 -0.2467
  260DOPC  C21235812   6.655  11.545   3.540 -0.2153  0.3329  0.5453
  260DOPC  H12R35813   6.581  11.622   3.571  1.5359  2.6014 -0.6492
  260DOPC  H12S35814   6.742  11.598   3.496  1.0785  0.0846  2.6948
  260DOPC  C21335815   6.686  11.449   3.657  0.4491  0.8063 -0.6526
  260DOPC  H13R35816   6.746  11.365   3.616 -1.2350 -1.9309  2.0115
  260DOPC  H13S35817   6.596  11.402   3.703 -0.1480 -0.0202 -2.5677
  260DOPC  C21435818   6.772  11.514   3.764  0.3786  0.0202 -0.5814
  260DOPC  H14R35819   6.732  11.605   3.813  0.1920 -0.2310 -0.2696
  260DOPC  H14S35820   6.861  11.542   3.704  1.1286  0.0728  0.5372
  260DOPC  C21535821   6.814  11.433   3.886 -0.3748  0.3726 -0.3298
  260DOPC  H15R35822   6.729  11.406   3.953  1.7266  1.5076  3.0566
  260DOPC  H15S35823   6.889  11.479   3.954  1.3752 -1.0735 -1.1974
  260DOPC  C21635824   6.888  11.290   3.863 -0.1980 -0.5921  0.3271
  260DOPC  H16R35825   6.932  11.299   3.761 -1.4411  0.6166 -0.1366
  260DOPC  H16S35826   6.810  11.211   3.854  0.3528 -0.9692 -1.7476
  260DOPC  C21735827   6.993  11.257   3.963 -0.4995 -0.4006  0.4000
  260DOPC  H17R35828   6.959  11.275   4.067  1.2501  1.1546  0.7681
  260DOPC  H17S35829   7.080  11.325   3.952 -1.0316  0.1761 -0.3967
  260DOPC  C21835830   7.047  11.113   3.959 -0.4907 -0.3207 -0.3288
  260DOPC  H18R35831   7.120  11.086   4.039 -1.2793 -2.7315 -0.3441
  260DOPC  H18S35832   7.087  11.077   3.861  0.9674 -0.6650  0.3673
  260DOPC  H18T35833   6.965  11.048   3.995 -0.0969  0.0769  1.3741
  260DOPC   C3335834   5.545  10.715   2.443 -0.1447  0.4710 -0.0800
  260DOPC   H3X35835   5.594  10.650   2.519 -2.3907 -1.5722 -0.2748
  260DOPC   H3Y35836   5.577  10.682   2.342 -0.8405 -2.4674  0.5804
  260DOPC   C3435837   5.394  10.702   2.461  0.0701 -0.2524 -0.0208
  260DOPC   H4X35838   5.341  10.770   2.391 -2.3299 -0.7355  1.2055
  260DOPC   H4Y35839   5.368  10.729   2.566 -2.3641 -0.8960 -0.3996
  260DOPC   C3535840   5.326  10.563   2.437  0.2817 -0.4063  1.2403
  260DOPC   H5X35841   5.369  10.500   2.518  2.8971  0.1137  0.3567
  260DOPC   H5Y35842   5.354  10.529   2.335 -1.5566  0.8948  0.2404
  260DOPC   C3635843   5.178  10.572   2.471 -0.6361  0.1422  0.4908
  260DOPC   H6X35844   5.135  10.472   2.490 -1.9364  0.4372 -0.6876
  260DOPC   H6Y35845   5.165  10.629   2.566 -0.6166 -0.7161  1.0214
  260DOPC   C3735846   5.094  10.644   2.354 -0.4613  0.0520 -0.8159
  260DOPC   H7X35847   5.131  10.748   2.339 -0.7462  0.1178 -1.0666
  260DOPC   H7Y35848   5.117  10.597   2.256 -0.4439  0.1336 -0.8507
  260DOPC   C3835849   4.945  10.644   2.387 -0.0288  0.1800 -0.0922
  260DOPC   H8X35850   4.899  10.710   2.311  2.0090  1.2430 -0.4621
  260DOPC   H8Y35851   4.927  10.696   2.483 -0.6227 -1.2303  0.5896
  260DOPC   C3935852   4.879  10.511   2.391  0.6186  0.0396  0.3076
  260DOPC   H9X35853   4.866  10.464   2.293  0.7007  0.1822  0.2285
  260DOPC  C31035854   4.839  10.442   2.498 -0.5073 -0.7048  0.3613
  260DOPC  H10X35855   4.800  10.340   2.490 -1.5409 -0.5986  2.9617
  260DOPC  C31135856   4.853  10.484   2.642  0.5780  0.1274 -0.3580
  260DOPC  H11X35857   4.753  10.514   2.678  1.1393  1.7822 -0.1149
  260DOPC  H11Y35858   4.923  10.569   2.659  2.2316 -1.2553  0.1347
  260DOPC  C31235859   4.899  10.367   2.733  0.6517 -0.0107  1.0018
  260DOPC  H12X35860   5.010  10.363   2.735  0.9153  1.4086 -3.0295
  260DOPC  H12Y35861   4.857  10.273   2.691  0.2498  0.9375 -0.7970
  260DOPC  C31335862   4.846  10.386   2.872  0.4264  0.5931 -0.0411
  260DOPC  H13X35863   4.875  10.488   2.907 -2.9150  1.2944  1.0258
  260DOPC  H13Y35864   4.736  10.383   2.879  0.3810 -1.0154 -0.9702
  260DOPC  C31435865   4.883  10.269   2.970 -0.0042  0.8684  0.6355
  260DOPC  H14X35866   4.861  10.169   2.928 -0.3988  0.5904  1.4805
  260DOPC  H14Y35867   4.991  10.281   2.994  0.0987  0.1033  0.5851
  260DOPC  C31535868   4.808  10.275   3.106  0.3093  1.1311  0.8296
  260DOPC  H15X35869   4.700  10.278   3.082  0.2266  0.9879  1.1743
  260DOPC  H15Y35870   4.841  10.370   3.154  3.9582  0.1802  0.4811
  260DOPC  C31635871   4.834  10.164   3.202 -0.0910  0.3028 -0.3283
  260DOPC  H16X35872   4.940  10.133   3.204  0.1040  0.9520  1.6831
  260DOPC  H16Y35873   4.810  10.202   3.303  0.3943 -0.3617  0.0401
  260DOPC  C31735874   4.745  10.039   3.169 -0.5639  0.0383 -0.0531
  260DOPC  H17X35875   4.636  10.057   3.185 -0.9700 -2.3279  0.1705
  260DOPC  H17Y35876   4.747  10.018   3.060 -1.6247 -0.1719 -0.0446
  260DOPC  C31835877   4.787   9.914   3.247 -0.6728 -0.2582 -0.3612
  260DOPC  H18X35878   4.792   9.949   3.352  0.7464  2.3509 -1.1891
  260DOPC  H18Y35879   4.720   9.827   3.232 -0.0135 -0.6472 -1.1248
  260DOPC  H18Z35880   4.888   9.891   3.208 -0.7333  0.5895 -1.0646
  261DOPC     N35881  10.465   0.711   1.893  0.5611  0.1570  0.2840
  261DOPC   C1235882  10.484   0.796   2.019  0.1185 -0.5304  0.6251
  261DOPC  H12A35883  10.548   0.882   2.007 -1.0720  0.5844  1.9228
  261DOPC  H12B35884  10.546   0.736   2.083 -0.6361 -2.9488 -0.7688
  261DOPC   C1335885  10.596   0.652   1.848 -0.3108 -0.3918 -0.4736
  261DOPC  H13A35886  10.659   0.738   1.828 -0.6798 -0.2283 -0.9576
  261DOPC  H13B35887  10.650   0.595   1.921  0.4778  1.0798  0.1469
  261DOPC  H13C35888  10.585   0.598   1.755  0.1156  0.6200 -1.1314
  261DOPC   C1435889  10.400   0.785   1.784  0.3313  0.4561 -0.2663
  261DOPC  H14A35890  10.394   0.724   1.696 -0.6079  1.2634 -0.7775
  261DOPC  H14B35891  10.306   0.821   1.823  0.4968 -1.0539  1.7355
  261DOPC  H14C35892  10.459   0.872   1.761  1.8399 -0.6816 -0.8621
  261DOPC   C1535893  10.373   0.596   1.928 -0.4350  0.2357 -0.2472
  261DOPC  H15A35894  10.291   0.639   1.984 -0.0198  0.6890  0.0284
  261DOPC  H15B35895  10.415   0.526   2.000 -0.5651  1.6860  1.3087
  261DOPC  H15C35896  10.351   0.536   1.841  0.9908 -2.2083  0.9502
  261DOPC   C1135897  10.361   0.839   2.103 -0.0654  0.7526  0.2298
  261DOPC  H11A35898  10.311   0.754   2.153  1.9420 -0.8663 -0.3408
  261DOPC  H11B35899  10.401   0.894   2.190  0.5428  0.1569  0.3410
  261DOPC     P35900  10.106   0.906   2.053 -0.1758 -0.1280  0.0730
  261DOPC   O1335901  10.057   0.771   2.014  0.0148 -1.5108  0.5287
  261DOPC   O1435902  10.046   1.026   1.993 -0.0318  0.6519  0.4918
  261DOPC   O1235903  10.263   0.913   2.033 -0.0755  0.4133  0.6232
  261DOPC   O1135904  10.101   0.915   2.211 -0.0492  0.1926 -0.1920
  261DOPC    C135905  10.079   1.029   2.293 -0.3363 -0.4506  0.1121
  261DOPC    HA35906   9.972   1.059   2.289 -0.1462  0.6002  1.6549
  261DOPC    HB35907  10.146   1.110   2.257  0.4881 -1.5307 -0.8653
  261DOPC    C235908  10.113   0.994   2.438  0.1320  0.2676 -1.1692
  261DOPC    HS35909  10.027   0.928   2.464 -0.6910  1.5052 -0.6835
  261DOPC   O2135910  10.119   1.116   2.515  0.2432  0.2027  0.2299
  261DOPC   C2135911  10.016   1.193   2.529 -0.6297  0.5031  0.0761
  261DOPC   O2235912   9.901   1.163   2.506  0.0627  0.4449 -0.0752
  261DOPC   C2235913  10.050   1.331   2.579  0.6553 -0.2220  0.5905
  261DOPC   H2R35914   9.970   1.399   2.545 -1.6692 -0.9785  4.0144
  261DOPC   H2S35915  10.154   1.351   2.546  0.4678  1.2811  0.8525
  261DOPC    C335916  10.256   0.927   2.463 -0.1620 -0.3192  0.7218
  261DOPC    HX35917  10.323   1.003   2.419 -1.2691  0.4925  0.3888
  261DOPC    HY35918  10.261   0.832   2.405 -0.9334  0.9168 -1.4562
  261DOPC   O3135919  10.278   0.899   2.602  0.1368 -0.2400 -0.2031
  261DOPC   C3135920  10.398   0.852   2.627 -0.3628  1.1923  0.0555
  261DOPC   O3235921  10.488   0.845   2.541  0.4830 -0.9424 -0.4040
  261DOPC   C3235922  10.396   0.802   2.769  0.3435 -0.0160  0.2268
  261DOPC   H2X35923  10.297   0.829   2.813  1.1880  0.0500  2.1949
  261DOPC   H2Y35924  10.386   0.691   2.766  1.2936 -0.0894 -0.5997
  261DOPC   C2335925  10.047   1.350   2.731 -0.2434 -0.0098 -0.3403
  261DOPC   H3R35926  10.113   1.436   2.758 -3.2163  2.1928  0.4504
  261DOPC   H3S35927  10.071   1.255   2.782  0.8515  0.3313 -0.1837
  261DOPC   C2435928   9.907   1.389   2.783 -0.1914  0.0489  0.3757
  261DOPC   H4R35929   9.841   1.305   2.752  1.7224 -1.0707 -0.8876
  261DOPC   H4S35930   9.885   1.483   2.728  1.1490  0.2403  0.1247
  261DOPC   C2535931   9.909   1.417   2.926  0.4777 -0.5550  0.2703
  261DOPC   H5R35932   9.960   1.516   2.937 -1.5710  0.5243  0.5083
  261DOPC   H5S35933   9.976   1.346   2.979  1.1413 -0.0918  0.0782
  261DOPC   C2635934   9.770   1.420   2.984  0.1419 -0.2717  0.1915
  261DOPC   H6R35935   9.729   1.319   2.962  0.2270 -0.3329  0.3157
  261DOPC   H6S35936   9.710   1.492   2.924 -0.3937 -1.2433 -0.4775
  261DOPC   C2735937   9.766   1.445   3.136  0.2169  0.5429  0.4950
  261DOPC   H7R35938   9.661   1.433   3.168 -0.8011  2.9782 -1.5126
  261DOPC   H7S35939   9.813   1.546   3.137  0.2200  0.5673 -0.4329
  261DOPC   C2835940   9.857   1.352   3.217  0.0685 -0.8861  0.5594
  261DOPC   H8R35941   9.961   1.331   3.182  0.0855  2.0462 -1.5139
  261DOPC   H8S35942   9.804   1.255   3.222 -1.6193  0.0363  1.4227
  261DOPC   C2935943   9.857   1.411   3.358 -0.7953  0.1616  0.1195
  261DOPC   H9R35944   9.870   1.520   3.359 -1.6293  0.2758 -0.1965
  261DOPC  C21035945   9.823   1.349   3.471  0.4220 -0.7095  0.3287
  261DOPC  H10R35946   9.799   1.401   3.565  1.2202 -2.1369  1.3739
  261DOPC  C21135947   9.794   1.205   3.502  0.1389  0.3139  0.1731
  261DOPC  H11R35948   9.832   1.146   3.415  0.1504 -0.1013  0.4535
  261DOPC  H11S35949   9.686   1.184   3.519  0.1004  0.8418  0.5974
  261DOPC  C21235950   9.872   1.168   3.632 -0.4846 -0.4154  0.2261
  261DOPC  H12R35951   9.842   1.238   3.712 -2.2640 -0.3802 -0.4228
  261DOPC  H12S35952   9.978   1.188   3.603 -0.1875 -0.0935  1.4667
  261DOPC  C21335953   9.849   1.030   3.690 -0.2879 -0.1330  0.0936
  261DOPC  H13R35954   9.866   0.960   3.606  1.4925 -0.8330  0.9780
  261DOPC  H13S35955   9.745   1.023   3.728 -0.2973  0.7586  0.2495
  261DOPC  C21435956   9.966   0.987   3.787  0.2268 -0.3506  0.2724
  261DOPC  H14R35957   9.951   1.051   3.876 -2.2991  0.3731 -0.6040
  261DOPC  H14S35958  10.066   0.994   3.739 -0.6164 -0.8147 -1.6703
  261DOPC  C21535959   9.947   0.846   3.842  0.0258  0.5339 -0.0783
  261DOPC  H15R35960   9.928   0.782   3.754 -4.0480  1.9088 -0.3932
  261DOPC  H15S35961   9.852   0.856   3.898 -1.4849  2.3928 -2.7936
  261DOPC  C21635962  10.071   0.787   3.926 -0.2301 -0.8438  0.8286
  261DOPC  H16R35963  10.078   0.846   4.020  1.7108 -1.1505  0.9102
  261DOPC  H16S35964  10.167   0.798   3.872  0.9921 -1.9121  2.6872
  261DOPC  C21735965  10.057   0.641   3.962 -0.8614 -0.2659  0.0374
  261DOPC  H17R35966  10.085   0.574   3.878 -2.7133  0.6712 -1.4132
  261DOPC  H17S35967   9.948   0.637   3.987 -1.1505  1.7749 -0.7167
  261DOPC  C21835968  10.144   0.595   4.085  0.0322 -0.3864  0.3778
  261DOPC  H18R35969  10.135   0.485   4.098  0.3717 -0.4061  0.4628
  261DOPC  H18S35970  10.121   0.663   4.169 -0.0962  3.0681 -2.2329
  261DOPC  H18T35971  10.252   0.613   4.067 -0.3910  1.5814 -0.4666
  261DOPC   C3335972  10.504   0.862   2.857  0.2473  0.2762  0.4225
  261DOPC   H3X35973  10.452   0.945   2.909  0.0272 -1.2063  2.7441
  261DOPC   H3Y35974  10.596   0.889   2.801 -0.1408 -0.9096 -0.8450
  261DOPC   C3435975  10.550   0.766   2.971 -0.1775 -0.6042 -0.0908
  261DOPC   H4X35976  10.603   0.677   2.931  0.2470  0.1491 -1.2401
  261DOPC   H4Y35977  10.455   0.730   3.016 -0.4512 -0.2995 -0.4148
  261DOPC   C3535978  10.649   0.839   3.067  0.9596  0.0904 -0.0616
  261DOPC   H5X35979  10.662   0.947   3.045 -0.5525  0.8024  2.1556
  261DOPC   H5Y35980  10.746   0.786   3.062  1.9876  1.7736  0.9908
  261DOPC   C3635981  10.597   0.823   3.206  0.1182  1.2679 -0.2199
  261DOPC   H6X35982  10.497   0.869   3.224  0.1406  1.0579  0.4749
  261DOPC   H6Y35983  10.576   0.714   3.217  0.5960  0.9250 -2.2579
  261DOPC   C3735984  10.692   0.862   3.319  0.0137  0.1791  0.3393
  261DOPC   H7X35985  10.797   0.869   3.284 -0.0288  1.4702  0.4167
  261DOPC   H7Y35986  10.675   0.970   3.344  2.9813  0.5788  0.9835
  261DOPC   C3835987  10.679   0.779   3.438  0.6841 -0.1935 -0.0949
  261DOPC   H8X35988  10.701   0.679   3.394  4.2661 -0.8553  2.6675
  261DOPC   H8Y35989  10.575   0.775   3.477 -0.3343  0.9453 -2.5385
  261DOPC   C3935990  10.784   0.815   3.542  0.4089  0.0382 -0.3874
  261DOPC   H9X35991  10.877   0.759   3.523  0.4145 -0.5137  1.1481
  261DOPC  C31035992  10.771   0.899   3.650 -0.1366 -0.2765  0.1894
  261DOPC  H10X35993  10.856   0.918   3.718  0.7639 -1.3403 -0.5995
  261DOPC  C31135994  10.644   0.973   3.686  0.0461 -0.3181  0.2307
  261DOPC  H11X35995  10.570   0.985   3.605 -2.1948 -0.6857  2.1305
  261DOPC  H11Y35996  10.674   1.070   3.731  1.1094 -1.3635  1.9033
  261DOPC  C31235997  10.590   0.905   3.810 -0.4095  0.3865  0.5969
  261DOPC  H12X35998  10.664   0.905   3.893  0.1591 -1.8879  0.1511
  261DOPC  H12Y35999  10.580   0.797   3.785  0.3782  0.3893  0.2614
  261DOPC  C31336000  10.455   0.960   3.862 -0.3828  0.1939  0.5966
  261DOPC  H13X36001  10.389   0.979   3.775  0.5988  0.7631 -0.0420
  261DOPC  H13Y36002  10.400   0.900   3.937  0.6880 -1.5229  0.0676
  261DOPC  C31436003  10.480   1.087   3.936 -0.4397  0.4088  0.2592
  261DOPC  H14X36004  10.519   1.069   4.038  1.0035  0.4835 -0.2573
  261DOPC  H14Y36005  10.556   1.153   3.889 -1.0257  1.1301  0.2891
  261DOPC  C31536006  10.349   1.176   3.943  0.2182  0.2359  0.0944
  261DOPC  H15X36007  10.304   1.190   3.842  0.0346  3.3274  0.5127
  261DOPC  H15Y36008  10.378   1.274   3.987  1.2294  1.2684 -2.6161
  261DOPC  C31636009  10.234   1.117   4.029 -0.0542 -0.2479  0.1411
  261DOPC  H16X36010  10.199   1.019   3.989  1.8006 -1.4602  1.3342
  261DOPC  H16Y36011  10.274   1.085   4.127 -0.2599 -1.5065 -0.1658
  261DOPC  C31736012  10.126   1.222   4.056 -0.4782  0.1506  0.1511
  261DOPC  H17X36013  10.176   1.317   4.086 -0.1114 -0.6414  2.2406
  261DOPC  H17Y36014  10.077   1.243   3.959  1.1263  2.2905 -0.2786
  261DOPC  C31836015  10.023   1.178   4.158 -0.5590  0.6787  0.0712
  261DOPC  H18X36016   9.926   1.150   4.111 -0.0754  1.8424 -1.7142
  261DOPC  H18Y36017  10.065   1.089   4.209 -4.1842 -1.2497  0.0573
  261DOPC  H18Z36018  10.006   1.261   4.230  0.1842  0.5060  0.4554
  262DOPC     N36019   7.636  11.637   2.180 -0.0878  0.2110 -0.6290
  262DOPC   C1236020   7.630  11.493   2.207  0.1943 -0.0497 -0.1930
  262DOPC  H12A36021   7.662  11.447   2.114  0.9242  2.2892 -1.1810
  262DOPC  H12B36022   7.528  11.463   2.225  0.7800 -0.8719  1.9916
  262DOPC   C1336023   7.779  11.667   2.146  0.2697 -0.2485  0.0275
  262DOPC  H13A36024   7.800  11.634   2.045  1.1108 -0.1350  0.1617
  262DOPC  H13B36025   7.784  11.774   2.154  0.4041 -0.0532 -2.0813
  262DOPC  H13C36026   7.839  11.625   2.225  0.2927 -1.3916 -0.5803
  262DOPC   C1436027   7.612  11.723   2.302  0.0649 -0.0681 -0.0250
  262DOPC  H14A36028   7.684  11.705   2.381 -0.0043  1.6654  0.4645
  262DOPC  H14B36029   7.629  11.827   2.281  0.6196  0.2165  1.7185
  262DOPC  H14C36030   7.514  11.712   2.346 -0.2151  0.2260 -0.5629
  262DOPC   C1536031   7.544  11.671   2.067 -0.1443 -0.7202  0.5888
  262DOPC  H15A36032   7.548  11.777   2.047 -0.7051 -1.0958 -1.8514
  262DOPC  H15B36033   7.440  11.654   2.091 -0.4577 -2.7377 -1.7806
  262DOPC  H15C36034   7.572  11.626   1.972 -1.2066 -1.8005  0.7604
  262DOPC   C1136035   7.719  11.430   2.317 -0.1532  0.2709  0.4179
  262DOPC  H11A36036   7.699  11.479   2.414 -0.7372 -1.8772  1.4523
  262DOPC  H11B36037   7.671  11.331   2.336  0.2934 -0.2393 -0.9900
  262DOPC     P36038   7.896  11.302   2.186  0.1951 -0.1422 -0.0539
  262DOPC   O1336039   8.031  11.322   2.138 -0.1046  0.0663 -0.4624
  262DOPC   O1436040   7.794  11.304   2.077  0.2019 -0.9817  0.2818
  262DOPC   O1236041   7.858  11.420   2.286 -0.1149  0.2621  0.0623
  262DOPC   O1136042   7.880  11.173   2.270  0.5853 -0.0012  0.0195
  262DOPC    C136043   7.899  11.160   2.409 -0.5207 -0.0039  0.0681
  262DOPC    HA36044   7.872  11.054   2.432  0.0131 -0.2202 -0.2729
  262DOPC    HB36045   7.826  11.214   2.473  0.2421  1.0871  0.0541
  262DOPC    C236046   8.042  11.198   2.458  0.2534 -0.1001  0.1357
  262DOPC    HS36047   8.050  11.308   2.445 -2.4631  0.2158  0.6399
  262DOPC   O2136048   8.136  11.122   2.379  0.1996  0.5476 -0.2112
  262DOPC   C2136049   8.257  11.182   2.361  0.4174  0.0512  0.0868
  262DOPC   O2236050   8.289  11.289   2.408 -0.4514  0.4202  0.0967
  262DOPC   C2236051   8.343  11.102   2.263  0.9831 -0.1505 -0.0064
  262DOPC   H2R36052   8.436  11.163   2.260 -0.0515  1.6038  1.2209
  262DOPC   H2S36053   8.286  11.098   2.168 -0.7697  1.1947  0.9298
  262DOPC    C336054   8.067  11.150   2.596 -0.0169  1.0635 -0.1438
  262DOPC    HX36055   8.161  11.193   2.637  2.2565 -3.1673 -0.3612
  262DOPC    HY36056   8.071  11.039   2.599 -0.4250  1.0128 -1.2103
  262DOPC   O3136057   7.958  11.192   2.691  0.1331 -0.0869  0.2558
  262DOPC   C3136058   7.967  11.139   2.811  0.5501  0.2587 -0.0287
  262DOPC   O3236059   8.044  11.051   2.840 -0.3213 -0.2993 -0.1471
  262DOPC   C3236060   7.864  11.212   2.903 -0.0729 -0.4077  0.0206
  262DOPC   H2X36061   7.802  11.278   2.839  1.3939 -1.0811 -2.1853
  262DOPC   H2Y36062   7.807  11.125   2.944 -1.2738  0.5373  0.4097
  262DOPC   C2336063   8.349  10.961   2.317 -0.1245 -0.6296 -0.0573
  262DOPC   H3R36064   8.426  10.898   2.266  1.9307 -0.9965  3.1940
  262DOPC   H3S36065   8.256  10.901   2.316 -0.3156 -0.3277 -0.6955
  262DOPC   C2436066   8.403  10.952   2.467  0.3426 -0.5113 -0.9780
  262DOPC   H4R36067   8.338  11.013   2.534 -0.1447 -0.7150 -1.2594
  262DOPC   H4S36068   8.508  10.988   2.466 -0.6830  2.9901  0.7351
  262DOPC   C2536069   8.396  10.808   2.518 -0.6874 -0.5984  0.3689
  262DOPC   H5R36070   8.471  10.746   2.465 -0.5221  1.5866 -2.1715
  262DOPC   H5S36071   8.293  10.769   2.503 -0.8340  0.2140 -0.8111
  262DOPC   C2636072   8.421  10.799   2.671  0.3097 -0.5495 -0.4445
  262DOPC   H6R36073   8.525  10.833   2.692  0.9086 -2.6459  0.2352
  262DOPC   H6S36074   8.422  10.690   2.692  0.6120 -0.1264  1.9503
  262DOPC   C2736075   8.325  10.865   2.768 -0.6394  0.6271 -0.1146
  262DOPC   H7R36076   8.225  10.828   2.737 -1.0078  0.1757  1.5672
  262DOPC   H7S36077   8.320  10.976   2.771  0.1930  0.6590  0.2960
  262DOPC   C2836078   8.344  10.823   2.916 -0.5504 -0.0287  0.8123
  262DOPC   H8R36079   8.320  10.717   2.940 -0.8527 -0.1482  0.0120
  262DOPC   H8S36080   8.272  10.885   2.973  2.1600  2.0046  2.2028
  262DOPC   C2936081   8.480  10.845   2.980  0.2867  0.9366  0.3626
  262DOPC   H9R36082   8.559  10.823   2.907 -2.0227  1.9233 -2.6257
  262DOPC  C21036083   8.512  10.899   3.101  0.1630  0.0012  0.0084
  262DOPC  H10R36084   8.619  10.909   3.126 -0.2368 -1.3110  2.7145
  262DOPC  C21136085   8.413  10.960   3.199  0.1829  0.2742 -0.5268
  262DOPC  H11R36086   8.316  10.921   3.162 -0.5452  1.1549  0.4114
  262DOPC  H11S36087   8.410  11.070   3.183  0.0470  0.3637  0.0767
  262DOPC  C21236088   8.433  10.932   3.351 -0.7602  0.0593  0.0517
  262DOPC  H12R36089   8.421  10.825   3.381  0.0857  0.3810  1.6875
  262DOPC  H12S36090   8.340  10.978   3.390  0.2816  0.6260  1.9989
  262DOPC  C21336091   8.561  10.986   3.420 -0.7187 -0.0703 -0.0647
  262DOPC  H13R36092   8.559  11.097   3.422 -0.6357 -0.0725  0.8910
  262DOPC  H13S36093   8.643  10.952   3.354 -1.2496  1.1556 -1.3844
  262DOPC  C21436094   8.588  10.927   3.559  0.0622  0.1570 -0.3645
  262DOPC  H14R36095   8.598  10.819   3.534  1.8520 -0.0029  0.9002
  262DOPC  H14S36096   8.504  10.939   3.631 -0.6886 -1.3482 -0.9553
  262DOPC  C21536097   8.718  10.984   3.614 -0.3059 -0.0424  0.2300
  262DOPC  H15R36098   8.715  11.095   3.614 -0.6859  0.0159 -2.7097
  262DOPC  H15S36099   8.801  10.962   3.545 -1.1499  0.9112 -1.1446
  262DOPC  C21636100   8.746  10.920   3.749  0.0049  0.2090  0.2396
  262DOPC  H16R36101   8.749  10.812   3.726  0.8735  0.2320  0.2317
  262DOPC  H16S36102   8.662  10.924   3.822 -0.3043  3.4888 -0.1405
  262DOPC  C21736103   8.869  10.969   3.819 -0.3264  0.1460 -0.7534
  262DOPC  H17R36104   8.863  11.075   3.852 -1.1282 -0.2693  0.5029
  262DOPC  H17S36105   8.939  10.958   3.734 -0.6977 -0.6717 -0.9588
  262DOPC  C21836106   8.915  10.872   3.928 -0.0486  0.4058 -0.0337
  262DOPC  H18R36107   8.903  10.768   3.892 -0.3263  0.2413  0.5418
  262DOPC  H18S36108   8.851  10.873   4.018 -0.0892 -0.0652 -0.0553
  262DOPC  H18T36109   9.023  10.881   3.956 -0.0517 -2.3553  1.2005
  262DOPC   C3336110   7.938  11.281   3.014 -0.4993 -0.4191 -0.4635
  262DOPC   H3X36111   7.986  11.376   2.983 -1.5846  0.4784  0.4898
  262DOPC   H3Y36112   8.015  11.214   3.058  0.3336  0.0764 -1.1357
  262DOPC   C3436113   7.844  11.314   3.133 -0.5267  0.4883 -0.6072
  262DOPC   H4X36114   7.757  11.375   3.100 -2.6749 -1.6110  0.7964
  262DOPC   H4Y36115   7.905  11.374   3.204 -1.0103  0.3583 -0.0777
  262DOPC   C3536116   7.786  11.193   3.201  0.3862  0.3721  0.3215
  262DOPC   H5X36117   7.872  11.125   3.220  1.7692  1.6527 -1.0481
  262DOPC   H5Y36118   7.723  11.143   3.125 -0.8476  0.6530  1.1322
  262DOPC   C3636119   7.705  11.224   3.324 -0.1672  0.3298 -0.2076
  262DOPC   H6X36120   7.620  11.291   3.297 -0.9971 -1.2149 -1.6268
  262DOPC   H6Y36121   7.647  11.135   3.357 -1.0544  0.0715 -2.3035
  262DOPC   C3736122   7.789  11.263   3.433  0.0970 -0.5940 -0.1311
  262DOPC   H7X36123   7.869  11.188   3.446  1.0843  0.1077 -1.9195
  262DOPC   H7Y36124   7.839  11.358   3.403 -0.6952  0.3142  1.2678
  262DOPC   C3836125   7.728  11.292   3.569  0.7391  0.2547  0.5489
  262DOPC   H8X36126   7.651  11.372   3.564  1.8934  1.3772  0.4222
  262DOPC   H8Y36127   7.812  11.322   3.635  0.2731  1.7314  0.5112
  262DOPC   C3936128   7.655  11.173   3.628  0.1016  0.0760 -0.0317
  262DOPC   H9X36129   7.556  11.146   3.589  0.1245 -1.4110  0.8373
  262DOPC  C31036130   7.708  11.090   3.712  0.4313 -0.0377  0.4268
  262DOPC  H10X36131   7.640  11.022   3.766 -1.5450  0.5548 -1.1988
  262DOPC  C31136132   7.849  11.100   3.765 -0.3496  0.5114 -0.8696
  262DOPC  H11X36133   7.839  11.127   3.872 -0.5167  2.2635 -1.2936
  262DOPC  H11Y36134   7.911  11.176   3.712  1.5436  0.0749  0.6131
  262DOPC  C31236135   7.934  10.970   3.762 -0.1271  0.1184  0.2944
  262DOPC  H12X36136   7.870  10.888   3.800  0.5925  0.9616  3.6100
  262DOPC  H12Y36137   8.017  10.982   3.834  0.8126 -3.0343 -0.1066
  262DOPC  C31336138   8.003  10.935   3.626  0.0486 -0.6191 -0.4319
  262DOPC  H13X36139   7.940  10.939   3.534  0.0236  1.1791 -0.3664
  262DOPC  H13Y36140   8.087  11.006   3.617 -1.1722  1.2859  1.9838
  262DOPC  C31436141   8.070  10.797   3.634 -0.4527 -0.7044 -0.5156
  262DOPC  H14X36142   7.984  10.730   3.653  0.4782 -1.7973 -0.0496
  262DOPC  H14Y36143   8.106  10.774   3.531  0.8798 -2.1113  0.2191
  262DOPC  C31536144   8.183  10.782   3.737  0.3330 -0.0001 -0.7274
  262DOPC  H15X36145   8.162  10.829   3.836  0.1808  0.9402 -1.1934
  262DOPC  H15Y36146   8.280  10.826   3.705  1.9530 -2.9340 -0.2114
  262DOPC  C31636147   8.209  10.634   3.769 -0.3333  0.0209 -0.7769
  262DOPC  H16X36148   8.120  10.587   3.817  0.4913 -0.3461  0.4477
  262DOPC  H16Y36149   8.235  10.580   3.676  0.5850  1.3134 -1.3002
  262DOPC  C31736150   8.330  10.601   3.864  0.5531 -0.2350 -0.7299
  262DOPC  H17X36151   8.422  10.643   3.819 -0.0208 -0.1313 -1.8150
  262DOPC  H17Y36152   8.314  10.652   3.961  1.0896  0.9409 -1.2486
  262DOPC  C31836153   8.354  10.448   3.886  0.0126 -0.1364 -0.4271
  262DOPC  H18X36154   8.271  10.408   3.947  0.3230  1.8291  1.3914
  262DOPC  H18Y36155   8.372  10.394   3.790  5.3639  0.2387  0.0656
  262DOPC  H18Z36156   8.440  10.434   3.955 -0.8785  2.4551  1.3725
  263DOPC     N36157   7.209   6.251   2.055  0.8609  0.2979 -0.6927
  263DOPC   C1236158   7.304   6.363   2.090  0.2832 -0.6044  0.1312
  263DOPC  H12A36159   7.358   6.339   2.181 -0.0359  0.6123  0.6701
  263DOPC  H12B36160   7.253   6.457   2.110 -2.0528 -2.2144  2.4265
  263DOPC   C1336161   7.281   6.116   2.071  0.0876  0.6124  0.2003
  263DOPC  H13A36162   7.370   6.108   2.011  1.2769  1.2281  1.8307
  263DOPC  H13B36163   7.305   6.101   2.175 -0.9504  1.3698  0.5713
  263DOPC  H13C36164   7.214   6.037   2.041  3.3814 -2.5009  0.3911
  263DOPC   C1436165   7.152   6.264   1.919  0.4111 -0.1854 -0.0729
  263DOPC  H14A36166   7.228   6.283   1.845 -0.5087 -0.3379 -1.0864
  263DOPC  H14B36167   7.101   6.176   1.884  0.5111  0.3482 -1.6476
  263DOPC  H14C36168   7.080   6.344   1.910 -0.4120 -0.6505  1.8980
  263DOPC   C1536169   7.093   6.251   2.150 -0.7631 -0.4565  0.3530
  263DOPC  H15A36170   7.044   6.347   2.145 -1.2774 -0.7136  0.3300
  263DOPC  H15B36171   7.115   6.214   2.249 -2.3076 -2.4276  0.0199
  263DOPC  H15C36172   7.016   6.186   2.111 -1.4427  0.0440  0.8371
  263DOPC   C1136173   7.424   6.392   1.993  0.3029 -0.5343 -0.4926
  263DOPC  H11A36174   7.393   6.409   1.888  0.2328  0.9408 -0.2460
  263DOPC  H11B36175   7.483   6.484   2.010  0.3254 -0.7803  0.8948
  263DOPC     P36176   7.608   6.251   2.115 -0.2064  0.1307  0.3212
  263DOPC   O1336177   7.719   6.350   2.109  0.0714 -0.0533  0.2154
  263DOPC   O1436178   7.636   6.110   2.118 -0.2912 -0.0565 -0.2767
  263DOPC   O1236179   7.510   6.286   2.000 -0.0631 -0.3551 -0.6049
  263DOPC   O1136180   7.530   6.291   2.247  0.0608  0.2079  1.0287
  263DOPC    C136181   7.583   6.226   2.363 -0.1582 -0.0230  0.4352
  263DOPC    HA36182   7.694   6.219   2.363  0.0284  1.7104  2.3229
  263DOPC    HB36183   7.542   6.128   2.394  1.1492 -0.5449  0.5898
  263DOPC    C236184   7.554   6.328   2.485  0.0537 -0.2235  0.5866
  263DOPC    HS36185   7.565   6.265   2.576  1.2677  0.1724  0.7223
  263DOPC   O2136186   7.420   6.390   2.487  0.2029 -0.5781 -0.0961
  263DOPC   C2136187   7.316   6.309   2.502 -0.3327  0.2782 -0.4583
  263DOPC   O2236188   7.319   6.187   2.501  0.6191 -0.6152 -0.1521
  263DOPC   C2236189   7.186   6.386   2.494  0.7985 -0.0813  0.1470
  263DOPC   H2R36190   7.114   6.326   2.552  1.7584  0.8083  2.3679
  263DOPC   H2S36191   7.149   6.389   2.389 -0.3393 -1.1736  0.5048
  263DOPC    C336192   7.661   6.432   2.487 -0.6004 -0.0345 -0.2305
  263DOPC    HX36193   7.671   6.485   2.390  0.2463  2.6847  1.2555
  263DOPC    HY36194   7.760   6.383   2.503 -1.0133 -0.2336  1.9347
  263DOPC   O3136195   7.657   6.530   2.592 -0.4761 -0.7109  0.6277
  263DOPC   C3136196   7.603   6.648   2.560 -0.4605  0.2816  0.1419
  263DOPC   O3236197   7.543   6.676   2.455 -0.4712  0.5823  0.1259
  263DOPC   C3236198   7.619   6.730   2.686  0.9123 -0.5078 -0.0335
  263DOPC   H2X36199   7.541   6.809   2.692  1.0824 -0.2714 -0.8092
  263DOPC   H2Y36200   7.602   6.670   2.777 -0.5798  1.4456  1.0510
  263DOPC   C2336201   7.187   6.528   2.558 -0.9010 -0.6300 -0.0515
  263DOPC   H3R36202   7.100   6.582   2.513 -1.4648 -1.6005 -0.1633
  263DOPC   H3S36203   7.273   6.582   2.514 -1.1209 -0.7301 -0.6180
  263DOPC   C2436204   7.168   6.520   2.711  0.0110  0.3475 -0.4381
  263DOPC   H4R36205   7.071   6.478   2.744 -0.3418  1.7566  0.4285
  263DOPC   H4S36206   7.164   6.626   2.744  1.6017  0.5000 -0.6438
  263DOPC   C2536207   7.290   6.452   2.781 -0.4330 -0.3770 -0.0299
  263DOPC   H5R36208   7.382   6.499   2.740 -1.3334  0.6822 -0.8898
  263DOPC   H5S36209   7.293   6.342   2.761  1.2315 -0.2012 -0.9710
  263DOPC   C2636210   7.284   6.482   2.934  0.2606  1.0854  1.1208
  263DOPC   H6R36211   7.279   6.592   2.950 -2.4089  0.9115  2.1454
  263DOPC   H6S36212   7.370   6.422   2.971  0.2704 -1.0751 -2.0536
  263DOPC   C2736213   7.165   6.413   3.005 -0.5075  0.0231 -0.5084
  263DOPC   H7R36214   7.161   6.303   2.988 -3.2533 -0.0372  0.1142
  263DOPC   H7S36215   7.073   6.456   2.961  0.1081 -0.4574 -2.3433
  263DOPC   C2836216   7.164   6.431   3.156 -0.2746  0.0475 -0.2608
  263DOPC   H8R36217   7.190   6.537   3.176  1.0840 -0.0991 -1.1428
  263DOPC   H8S36218   7.245   6.373   3.204 -1.3139 -2.2956 -1.1900
  263DOPC   C2936219   7.042   6.379   3.228  0.0213  0.8440 -0.0303
  263DOPC   H9R36220   6.951   6.395   3.168 -0.7471  1.6436  1.2965
  263DOPC  C21036221   7.032   6.334   3.353 -0.4262  0.2031 -0.3402
  263DOPC  H10R36222   6.946   6.277   3.391  0.8322 -0.7566  1.2124
  263DOPC  C21136223   7.148   6.308   3.452 -0.6329  0.4191  0.3829
  263DOPC  H11R36224   7.220   6.242   3.398 -1.4799 -0.2734  0.0628
  263DOPC  H11S36225   7.111   6.253   3.541 -0.5548  0.0453  0.1883
  263DOPC  C21236226   7.214   6.429   3.500  1.0411 -0.3488  0.7478
  263DOPC  H12R36227   7.145   6.490   3.562  0.7924  0.3277 -0.1629
  263DOPC  H12S36228   7.244   6.501   3.421 -0.9503  1.2344  1.3788
  263DOPC  C21336229   7.353   6.403   3.559  0.1158  0.8673 -0.5967
  263DOPC  H13R36230   7.407   6.498   3.577  0.2538  0.5510  0.7911
  263DOPC  H13S36231   7.416   6.345   3.489 -0.2921 -0.3167 -0.0297
  263DOPC  C21436232   7.370   6.321   3.692 -0.1825  0.4215  0.5700
  263DOPC  H14R36233   7.476   6.287   3.685  0.3143  1.8098  1.0820
  263DOPC  H14S36234   7.303   6.232   3.692  1.1698 -0.7850 -2.7018
  263DOPC  C21536235   7.338   6.392   3.828  0.4364  0.3120 -1.1988
  263DOPC  H15R36236   7.229   6.387   3.850  0.1763  0.8343 -2.2815
  263DOPC  H15S36237   7.358   6.500   3.812 -0.5985  0.5888 -0.7168
  263DOPC  C21636238   7.432   6.346   3.947  0.1728 -0.4429 -0.0017
  263DOPC  H16R36239   7.412   6.427   4.020  0.8286 -0.7242  0.5030
  263DOPC  H16S36240   7.538   6.349   3.914  0.0073 -0.9184 -0.6050
  263DOPC  C21736241   7.409   6.205   4.003  1.0985 -0.3031 -0.1228
  263DOPC  H17R36242   7.401   6.123   3.929 -2.4343 -1.1939  1.0688
  263DOPC  H17S36243   7.310   6.196   4.053  1.4961 -0.7052  0.6198
  263DOPC  C21836244   7.524   6.169   4.098  0.8329 -0.1041 -0.8914
  263DOPC  H18R36245   7.558   6.245   4.173  0.9126 -0.3066 -0.7214
  263DOPC  H18S36246   7.611   6.154   4.030  0.5596 -0.4859 -1.1577
  263DOPC  H18T36247   7.501   6.080   4.161  0.9619  1.1394  1.0205
  263DOPC   C3336248   7.744   6.814   2.692  0.0920  0.7240 -0.3268
  263DOPC   H3X36249   7.744   6.886   2.607  0.7488 -0.4975 -1.4002
  263DOPC   H3Y36250   7.825   6.739   2.680  0.5886  1.2791 -0.4972
  263DOPC   C3436251   7.770   6.886   2.832 -0.0457  0.2931  1.2511
  263DOPC   H4X36252   7.723   6.817   2.905 -0.0770 -0.2567  0.7121
  263DOPC   H4Y36253   7.701   6.972   2.822 -0.0617  0.1485 -0.1077
  263DOPC   C3536254   7.911   6.923   2.854 -0.1711  0.9165 -0.7708
  263DOPC   H5X36255   7.965   6.970   2.768  0.7497  0.8852 -0.2261
  263DOPC   H5Y36256   7.972   6.832   2.877 -1.8827  0.0577  0.5772
  263DOPC   C3636257   7.925   7.020   2.975  0.2669  0.7396  0.5422
  263DOPC   H6X36258   7.869   7.113   2.952 -1.0396  0.6439  2.9913
  263DOPC   H6Y36259   7.868   6.985   3.064 -0.3521  0.5223  0.0710
  263DOPC   C3736260   8.066   7.069   3.010  0.0367 -0.1652  0.1907
  263DOPC   H7X36261   8.090   7.132   2.922  2.7218 -1.1601  0.1430
  263DOPC   H7Y36262   8.057   7.142   3.094 -1.4839  2.1969 -1.8530
  263DOPC   C3836263   8.176   6.961   3.010  0.7418  0.1952  0.8876
  263DOPC   H8X36264   8.168   6.901   2.917  2.3334 -0.9770  1.4652
  263DOPC   H8Y36265   8.155   6.892   3.095  0.0950 -1.2392 -0.3987
  263DOPC   C3936266   8.314   7.024   3.019  0.0747 -0.0443  0.2685
  263DOPC   H9X36267   8.332   7.068   3.118 -1.0218  0.4368  0.2742
  263DOPC  C31036268   8.421   7.031   2.930  0.0644  0.2862 -0.5636
  263DOPC  H10X36269   8.514   7.073   2.969 -1.4678  0.4739  3.3219
  263DOPC  C31136270   8.439   6.962   2.803 -0.3194  0.1475  0.2221
  263DOPC  H11X36271   8.356   6.890   2.793 -0.5420  0.3891  0.3149
  263DOPC  H11Y36272   8.520   6.886   2.802 -1.0185 -0.6027 -0.1151
  263DOPC  C31236273   8.449   7.050   2.678 -0.5034  0.2096 -0.1993
  263DOPC  H12X36274   8.530   7.126   2.688 -1.5055  1.4440 -1.1766
  263DOPC  H12Y36275   8.354   7.105   2.661  0.2985  1.3283 -1.3031
  263DOPC  C31336276   8.466   6.970   2.547  0.2955 -0.1514 -0.3481
  263DOPC  H13X36277   8.463   7.039   2.460  1.9942  1.2413  0.6291
  263DOPC  H13Y36278   8.571   6.935   2.541  0.9218  1.5037  0.2432
  263DOPC  C31436279   8.372   6.847   2.533  0.2131  0.2748  0.7310
  263DOPC  H14X36280   8.388   6.799   2.435  0.4476 -0.1682  0.9846
  263DOPC  H14Y36281   8.395   6.781   2.620 -0.9147 -0.1398  0.7280
  263DOPC  C31536282   8.221   6.881   2.538 -0.3732 -0.3391 -0.1417
  263DOPC  H15X36283   8.190   6.932   2.631 -1.9759 -0.3713 -0.6217
  263DOPC  H15Y36284   8.161   6.787   2.530 -2.0672  0.6777  0.1500
  263DOPC  C31636285   8.175   6.980   2.426  0.0039  0.3571 -0.4030
  263DOPC  H16X36286   8.259   7.050   2.409 -0.9248  1.2679 -1.3343
  263DOPC  H16Y36287   8.166   6.919   2.334 -0.2002 -1.8458  1.0020
  263DOPC  C31736288   8.046   7.042   2.460  0.7926 -0.2067 -0.1261
  263DOPC  H17X36289   8.006   7.092   2.369 -0.6210  2.1806  1.7023
  263DOPC  H17Y36290   7.979   6.962   2.497  1.6103 -0.3109  1.1834
  263DOPC  C31836291   8.052   7.147   2.574 -0.5234 -0.2504 -0.2516
  263DOPC  H18X36292   7.955   7.201   2.575 -0.3221  0.1870 -1.8898
  263DOPC  H18Y36293   8.065   7.096   2.672 -1.1155 -1.5253 -0.8134
  263DOPC  H18Z36294   8.127   7.225   2.552 -1.1317  0.5994  0.6076
  264DOPC     N36295   3.347   5.447   1.724 -0.1929 -0.5995  0.5887
  264DOPC   C1236296   3.402   5.512   1.860 -0.1544  0.0134  0.0137
  264DOPC  H12A36297   3.313   5.529   1.919 -0.1536  1.8880 -0.4556
  264DOPC  H12B36298   3.461   5.598   1.832 -0.6299  0.8379  1.4815
  264DOPC   C1336299   3.261   5.534   1.643  0.6992  0.3096  0.3219
  264DOPC  H13A36300   3.221   5.480   1.559  0.4696 -0.3608  0.8551
  264DOPC  H13B36301   3.169   5.561   1.693  0.9056  1.1090  0.2932
  264DOPC  H13C36302   3.306   5.626   1.608  1.7647 -0.7343 -1.1484
  264DOPC   C1436303   3.270   5.324   1.768 -0.2840 -0.2154 -0.0859
  264DOPC  H14A36304   3.212   5.336   1.859  0.3073  0.5680  0.2022
  264DOPC  H14B36305   3.203   5.286   1.693 -2.0276  1.7532  0.3833
  264DOPC  H14C36306   3.342   5.246   1.790  0.9865  1.5396  2.6631
  264DOPC   C1536307   3.454   5.392   1.634  0.1303 -0.1711 -0.4927
  264DOPC  H15A36308   3.411   5.324   1.561  0.6316  1.3140 -2.2444
  264DOPC  H15B36309   3.517   5.321   1.685  2.7098  1.1775 -1.6247
  264DOPC  H15C36310   3.505   5.474   1.586 -1.3060  0.0362 -1.7514
  264DOPC   C1136311   3.480   5.414   1.944 -0.0549 -0.1752 -0.5367
  264DOPC  H11A36312   3.485   5.448   2.049  0.3717 -1.7567 -0.0285
  264DOPC  H11B36313   3.436   5.314   1.966  0.8165 -0.1563  1.4961
  264DOPC     P36314   3.731   5.504   1.897  0.0212  0.0782 -0.4427
  264DOPC   O1336315   3.677   5.629   1.838  0.1874  0.2450  0.2755
  264DOPC   O1436316   3.846   5.443   1.832  0.4514  0.3471  0.4877
  264DOPC   O1236317   3.612   5.393   1.890  0.4355  0.1549  0.3968
  264DOPC   O1136318   3.760   5.518   2.057 -0.4318  0.1573 -0.3669
  264DOPC    C136319   3.798   5.395   2.123 -0.4975  0.1873  0.0416
  264DOPC    HA36320   3.872   5.333   2.068 -0.6682  0.6855 -0.7595
  264DOPC    HB36321   3.709   5.329   2.127  1.4513 -2.5671  0.6703
  264DOPC    C236322   3.853   5.418   2.269  0.3514 -0.0405 -0.8543
  264DOPC    HS36323   3.856   5.323   2.328  0.7998  0.7240  0.3966
  264DOPC   O2136324   3.774   5.513   2.345  0.2102 -0.4980  0.5498
  264DOPC   C2136325   3.658   5.467   2.383 -0.2644 -0.7398 -1.4492
  264DOPC   O2236326   3.599   5.371   2.346 -0.0196 -0.3900  0.0962
  264DOPC   C2236327   3.616   5.551   2.499  0.2795 -0.1952 -0.2828
  264DOPC   H2R36328   3.620   5.656   2.464  1.1473 -0.5063 -1.1859
  264DOPC   H2S36329   3.689   5.529   2.579  0.9938 -2.0903 -1.3735
  264DOPC    C336330   3.995   5.470   2.262 -0.6503 -0.1566 -0.7051
  264DOPC    HX36331   4.007   5.569   2.213 -0.1777  0.6880  1.0347
  264DOPC    HY36332   4.048   5.402   2.192 -2.1298 -0.2951 -1.7210
  264DOPC   O3136333   4.053   5.476   2.396 -0.1587  0.1358  0.2984
  264DOPC   C3136334   4.068   5.604   2.440 -0.7873  0.2036 -0.2617
  264DOPC   O3236335   4.041   5.705   2.377 -0.0381  0.2963 -0.4080
  264DOPC   C3236336   4.127   5.607   2.581  0.0778 -0.6312  0.3203
  264DOPC   H2X36337   4.072   5.524   2.631 -2.3371  0.1842 -0.8328
  264DOPC   H2Y36338   4.236   5.588   2.583  0.0789 -0.6046  0.6186
  264DOPC   C2336339   3.473   5.514   2.552 -0.1831  0.1318 -0.2162
  264DOPC   H3R36340   3.460   5.555   2.654  1.3607  1.2859 -0.4516
  264DOPC   H3S36341   3.457   5.404   2.561  1.5331 -0.0560  0.8798
  264DOPC   C2436342   3.365   5.562   2.462 -0.5807  0.0891  0.4048
  264DOPC   H4R36343   3.386   5.529   2.358 -0.0650  1.5186  0.0247
  264DOPC   H4S36344   3.369   5.673   2.455 -0.0122  0.0345 -0.3609
  264DOPC   C2536345   3.219   5.520   2.491  0.4567 -0.0059  0.3733
  264DOPC   H5R36346   3.211   5.501   2.601  2.3507  1.1251  0.7455
  264DOPC   H5S36347   3.207   5.427   2.432 -1.6481  1.3725 -1.5167
  264DOPC   C2636348   3.114   5.618   2.432  0.7135 -0.2793  0.5329
  264DOPC   H6R36349   3.098   5.613   2.322  1.3556  1.0852  0.3544
  264DOPC   H6S36350   3.136   5.724   2.457  1.2727 -0.5030  1.0047
  264DOPC   C2736351   2.970   5.571   2.482  0.0504 -1.2132  0.4492
  264DOPC   H7R36352   2.978   5.461   2.468  0.7886 -0.9803 -1.1645
  264DOPC   H7S36353   2.901   5.617   2.408  0.9224 -0.4735  0.0794
  264DOPC   C2836354   2.936   5.603   2.630 -0.6610 -0.4123  0.3423
  264DOPC   H8R36355   3.003   5.541   2.693  1.0798  0.1348 -0.8976
  264DOPC   H8S36356   2.834   5.565   2.651 -1.8280  1.7198 -1.1159
  264DOPC   C2936357   2.938   5.750   2.679 -0.1132 -0.0303  0.1503
  264DOPC   H9R36358   2.897   5.825   2.610  1.0951 -0.5623 -1.1765
  264DOPC  C21036359   2.991   5.793   2.794  0.8992  0.1898  0.3650
  264DOPC  H10R36360   3.002   5.901   2.808  0.5586  0.3685 -0.6544
  264DOPC  C21136361   3.043   5.705   2.908  0.1326 -0.4533 -0.4560
  264DOPC  H11R36362   3.147   5.738   2.928 -0.2592  0.2304  0.5343
  264DOPC  H11S36363   3.044   5.599   2.874 -1.6702 -0.6117 -0.1115
  264DOPC  C21236364   2.947   5.715   3.029 -0.3466  0.0684 -0.1733
  264DOPC  H12R36365   2.991   5.646   3.103  0.9618  0.2080 -0.7930
  264DOPC  H12S36366   2.848   5.674   3.000 -0.0269 -2.4356  1.9311
  264DOPC  C21336367   2.945   5.857   3.089  0.1084  0.3526 -0.0945
  264DOPC  H13R36368   2.908   5.922   3.006  2.9914  0.2037 -1.6293
  264DOPC  H13S36369   3.046   5.899   3.105  0.8183 -0.2294 -2.6646
  264DOPC  C21436370   2.865   5.886   3.220  0.0480 -0.4826  0.8373
  264DOPC  H14R36371   2.791   5.804   3.214 -0.2403 -0.1512 -0.4364
  264DOPC  H14S36372   2.821   5.988   3.227  1.4691  0.2056  0.1686
  264DOPC  C21536373   2.955   5.864   3.339  0.0707 -0.5383 -0.0667
  264DOPC  H15R36374   3.031   5.945   3.337  1.0181 -1.4197 -2.1049
  264DOPC  H15S36375   3.018   5.773   3.329  1.9253  0.7507 -0.7091
  264DOPC  C21636376   2.866   5.863   3.465 -0.3800 -0.1509 -0.3215
  264DOPC  H16R36377   2.780   5.799   3.436  0.5145 -0.0228 -3.6290
  264DOPC  H16S36378   2.836   5.969   3.485 -2.0955 -1.0127  2.1410
  264DOPC  C21736379   2.935   5.811   3.584 -0.0617  0.6442 -0.4269
  264DOPC  H17R36380   3.024   5.873   3.610  0.9240 -1.3668  1.2852
  264DOPC  H17S36381   2.973   5.712   3.553 -0.0248 -0.1697  1.9849
  264DOPC  C21836382   2.844   5.794   3.710 -0.0050  0.3097  0.5808
  264DOPC  H18R36383   2.906   5.776   3.801  1.8976 -0.3637 -0.7776
  264DOPC  H18S36384   2.773   5.711   3.694 -1.1564  1.3268  0.2412
  264DOPC  H18T36385   2.790   5.887   3.740 -3.1172 -1.2847  0.2685
  264DOPC   C3336386   4.109   5.743   2.649 -0.1468 -0.8004  0.3956
  264DOPC   H3X36387   4.148   5.825   2.585 -2.8787 -0.5582 -1.1179
  264DOPC   H3Y36388   4.157   5.738   2.749 -0.3922  1.0550  0.6291
  264DOPC   C3436389   3.964   5.792   2.669  1.2594  0.1916 -0.0865
  264DOPC   H4X36390   3.906   5.788   2.574 -2.1872  1.4328  1.7721
  264DOPC   H4Y36391   3.962   5.900   2.697  1.8417  0.7430 -2.0060
  264DOPC   C3536392   3.880   5.719   2.766 -0.0013  0.1892 -0.4624
  264DOPC   H5X36393   3.894   5.609   2.758 -0.5749  0.2612 -3.6899
  264DOPC   H5Y36394   3.774   5.742   2.739 -1.1022 -1.5125  1.9924
  264DOPC   C3636395   3.883   5.771   2.906  0.3544  0.2948  0.0981
  264DOPC   H6X36396   3.990   5.777   2.935  1.4145  0.9171 -3.4356
  264DOPC   H6Y36397   3.836   5.872   2.902  0.2908  0.3263  1.2324
  264DOPC   C3736398   3.788   5.694   2.991  0.2886  0.7914  0.4069
  264DOPC   H7X36399   3.691   5.689   2.939  0.7093  1.7988 -0.5070
  264DOPC   H7Y36400   3.825   5.589   2.997 -1.2782  0.1360 -0.7773
  264DOPC   C3836401   3.769   5.748   3.130 -0.8710 -0.0204  0.6348
  264DOPC   H8X36402   3.747   5.856   3.111  0.3525  0.0303 -0.6103
  264DOPC   H8Y36403   3.867   5.742   3.181  1.0510 -0.2005 -2.7688
  264DOPC   C3936404   3.647   5.689   3.201  0.1197  0.0188 -0.2362
  264DOPC   H9X36405   3.552   5.727   3.161 -0.0143  1.0043  0.9686
  264DOPC  C31036406   3.648   5.603   3.306 -0.4979  0.3983  0.0616
  264DOPC  H10X36407   3.552   5.574   3.351  0.3946  0.0509  1.8031
  264DOPC  C31136408   3.773   5.536   3.370 -0.3461 -0.5088  0.1347
  264DOPC  H11X36409   3.871   5.564   3.327 -1.4755  0.4833 -1.9863
  264DOPC  H11Y36410   3.762   5.426   3.358  1.0796 -0.4330 -2.6416
  264DOPC  C31236411   3.783   5.581   3.513 -0.0896 -0.2987  0.1178
  264DOPC  H12X36412   3.683   5.559   3.558 -1.2295 -0.0612 -2.1369
  264DOPC  H12Y36413   3.793   5.691   3.510  0.7653 -0.3915 -0.7366
  264DOPC  C31336414   3.883   5.510   3.600  0.1240 -0.5997  0.0292
  264DOPC  H13X36415   3.860   5.401   3.597 -1.1807 -0.3257 -0.5857
  264DOPC  H13Y36416   3.982   5.541   3.561 -0.2315  0.5544 -0.0072
  264DOPC  C31436417   3.874   5.560   3.745  0.1046  0.0748 -0.0259
  264DOPC  H14X36418   3.964   5.527   3.800 -0.5855  1.5787  2.1250
  264DOPC  H14Y36419   3.863   5.670   3.747 -0.8107  0.0173 -0.9469
  264DOPC  C31536420   3.745   5.512   3.820 -0.7228  0.3831  0.4887
  264DOPC  H15X36421   3.746   5.403   3.798  4.4214  0.3433 -0.2109
  264DOPC  H15Y36422   3.655   5.553   3.768 -0.4372 -0.6708 -0.8820
  264DOPC  C31636423   3.753   5.542   3.970 -0.3741 -0.2894  0.5304
  264DOPC  H16X36424   3.668   5.494   4.022 -0.2918 -0.2328  0.7194
  264DOPC  H16Y36425   3.849   5.496   4.003 -1.1898 -1.9162  0.7319
  264DOPC  C31736426   3.760   5.695   4.014  0.5745 -0.2348  0.1811
  264DOPC  H17X36427   3.811   5.762   3.941  1.1083  1.1396  1.7635
  264DOPC  H17Y36428   3.656   5.730   4.025  0.0947  0.1981 -4.1044
  264DOPC  C31836429   3.825   5.699   4.154 -0.9220 -0.0118 -0.4137
  264DOPC  H18X36430   3.788   5.602   4.193 -1.7415 -0.2657 -1.7366
  264DOPC  H18Y36431   3.936   5.699   4.155 -0.8644 -0.0498  2.9896
  264DOPC  H18Z36432   3.771   5.771   4.219 -0.1491 -0.0261  0.2494
  265DOPC     N36433   5.316   1.640   1.743  0.0212  0.4804 -0.2048
  265DOPC   C1236434   5.260   1.569   1.868  0.6287  0.0446  0.0468
  265DOPC  H12A36435   5.169   1.616   1.902  0.5939  1.0594 -1.3977
  265DOPC  H12B36436   5.331   1.584   1.948 -1.1243 -0.2550  1.7411
  265DOPC   C1336437   5.439   1.574   1.688 -0.6224 -0.7444  0.0777
  265DOPC  H13A36438   5.493   1.641   1.623 -1.3559 -1.8655 -1.7407
  265DOPC  H13B36439   5.514   1.553   1.763  0.1385  0.2239 -0.3994
  265DOPC  H13C36440   5.410   1.480   1.643 -3.3168 -1.1011  2.2237
  265DOPC   C1436441   5.376   1.768   1.782 -0.7183  0.1139 -0.4152
  265DOPC  H14A36442   5.442   1.766   1.867 -0.1399  2.5944 -0.7256
  265DOPC  H14B36443   5.423   1.825   1.703 -2.2326  3.2534  0.7469
  265DOPC  H14C36444   5.295   1.832   1.813 -1.2177  0.2736 -1.9383
  265DOPC   C1536445   5.207   1.671   1.645  0.0055 -0.6529  0.4140
  265DOPC  H15A36446   5.155   1.582   1.615 -3.8760  1.4694  0.1780
  265DOPC  H15B36447   5.235   1.727   1.557 -1.8028 -3.2353 -1.9834
  265DOPC  H15C36448   5.128   1.731   1.689 -0.2836  0.3937 -1.4340
  265DOPC   C1136449   5.229   1.423   1.846  0.1761  0.0028 -0.1307
  265DOPC  H11A36450   5.157   1.399   1.926 -0.7528  1.4201 -0.5033
  265DOPC  H11B36451   5.171   1.414   1.751  3.1180  0.9158 -2.1644
  265DOPC     P36452   5.463   1.311   1.927 -0.1962 -0.4208  0.0372
  265DOPC   O1336453   5.555   1.428   1.928 -0.6718 -0.1636 -0.4393
  265DOPC   O1436454   5.521   1.181   1.881  0.2199 -0.1595  0.3938
  265DOPC   O1236455   5.347   1.334   1.825  0.0974 -0.3160 -0.1252
  265DOPC   O1136456   5.391   1.314   2.066  0.2577  0.0772  0.7290
  265DOPC    C136457   5.287   1.215   2.088  0.0979 -0.4002  0.1557
  265DOPC    HA36458   5.333   1.117   2.065  2.1929  0.9095 -1.7491
  265DOPC    HB36459   5.203   1.224   2.016 -0.6595 -1.4354  0.8896
  265DOPC    C236460   5.226   1.222   2.224  0.4725  0.6909  0.3047
  265DOPC    HS36461   5.162   1.313   2.226  0.2189  0.5035  0.8373
  265DOPC   O2136462   5.339   1.233   2.318 -0.1437 -0.2146  0.9228
  265DOPC   C2136463   5.309   1.287   2.431  0.6292  0.0116 -0.3066
  265DOPC   O2236464   5.213   1.355   2.461  0.1842 -0.1224 -0.6017
  265DOPC   C2236465   5.429   1.261   2.523 -0.4205 -0.8011 -0.1362
  265DOPC   H2R36466   5.520   1.283   2.463  1.4610  0.7973  3.0145
  265DOPC   H2S36467   5.437   1.151   2.534 -0.5315 -0.6868  1.3253
  265DOPC    C336468   5.133   1.094   2.251  0.2608 -0.5219 -0.2805
  265DOPC    HX36469   5.199   1.005   2.242  0.7682 -0.1709 -0.1056
  265DOPC    HY36470   5.047   1.085   2.181 -0.1303 -0.2529  0.1596
  265DOPC   O3136471   5.093   1.102   2.387 -0.6988 -0.2795  0.0361
  265DOPC   C3136472   4.976   1.163   2.416  0.0180  0.0502  0.5424
  265DOPC   O3236473   4.902   1.213   2.331  0.0744  0.1371  0.5578
  265DOPC   C3236474   4.948   1.179   2.566 -0.2433 -0.2192 -0.5098
  265DOPC   H2X36475   5.030   1.145   2.633 -1.6427  0.6041  1.7177
  265DOPC   H2Y36476   4.939   1.288   2.585 -0.1689  0.0125 -1.7504
  265DOPC   C2336477   5.421   1.334   2.654  0.4364  0.2575  0.4957
  265DOPC   H3R36478   5.320   1.309   2.695 -1.0432  0.7668 -2.5339
  265DOPC   H3S36479   5.423   1.444   2.638 -1.9952  0.4578  1.1145
  265DOPC   C2436480   5.525   1.283   2.758  0.3086 -0.3464  0.8416
  265DOPC   H4R36481   5.618   1.293   2.698 -0.7641  0.7151 -0.7288
  265DOPC   H4S36482   5.500   1.175   2.766  0.3152 -0.8055 -3.2444
  265DOPC   C2536483   5.521   1.364   2.887 -0.0057  0.4887  0.1249
  265DOPC   H5R36484   5.584   1.320   2.968  0.5950 -0.0910 -0.6453
  265DOPC   H5S36485   5.418   1.368   2.928  0.2549  3.7475  0.7822
  265DOPC   C2636486   5.558   1.516   2.863 -0.2195  0.1121  0.1252
  265DOPC   H6R36487   5.498   1.557   2.778 -0.0723 -1.3332 -0.7036
  265DOPC   H6S36488   5.658   1.504   2.815 -0.3816 -3.4327  0.4103
  265DOPC   C2736489   5.539   1.599   2.994 -0.2763  0.0543  0.5296
  265DOPC   H7R36490   5.593   1.569   3.086 -1.0893 -3.4829 -0.0155
  265DOPC   H7S36491   5.431   1.597   3.020 -0.5472 -0.2020 -0.5435
  265DOPC   C2836492   5.579   1.748   2.967  0.0349 -0.7948 -0.8804
  265DOPC   H8R36493   5.552   1.793   3.065  1.7904 -0.5373 -0.4806
  265DOPC   H8S36494   5.512   1.787   2.887 -0.4691  2.6449  1.0011
  265DOPC   C2936495   5.730   1.762   2.935 -0.1720 -0.2509 -0.0324
  265DOPC   H9R36496   5.773   1.702   2.853  1.4634 -1.0905  1.3756
  265DOPC  C21036497   5.822   1.838   2.999 -0.3600  0.0781 -0.5767
  265DOPC  H10R36498   5.928   1.835   2.968 -0.6477 -1.1542 -1.5172
  265DOPC  C21136499   5.788   1.917   3.121  0.0299 -0.6318  0.1125
  265DOPC  H11R36500   5.698   1.874   3.169 -0.2690 -0.6062 -0.4187
  265DOPC  H11S36501   5.775   2.025   3.101  1.3982 -0.8200 -2.0085
  265DOPC  C21236502   5.895   1.917   3.235 -0.2684 -0.0586  0.1224
  265DOPC  H12R36503   5.859   1.983   3.316 -1.5801  0.1981 -0.6245
  265DOPC  H12S36504   5.987   1.962   3.193  0.4921 -2.0892 -0.5388
  265DOPC  C21336505   5.945   1.780   3.285  0.1871 -0.6878  0.1079
  265DOPC  H13R36506   6.026   1.811   3.354  2.0967 -1.4713 -1.6538
  265DOPC  H13S36507   5.982   1.713   3.204 -1.4936 -0.5683 -0.7995
  265DOPC  C21436508   5.826   1.698   3.351 -0.5807  0.0944 -0.3652
  265DOPC  H14R36509   5.752   1.677   3.271 -1.3938  0.1471  0.3632
  265DOPC  H14S36510   5.764   1.759   3.420 -1.6467 -0.0592 -1.1619
  265DOPC  C21536511   5.879   1.582   3.429 -0.2788  0.2535  0.5977
  265DOPC  H15R36512   5.939   1.604   3.520  0.4295  0.3784  0.1062
  265DOPC  H15S36513   5.945   1.538   3.352 -1.0066  0.9310 -0.4327
  265DOPC  C21636514   5.771   1.478   3.475  0.0600  0.1457  0.4172
  265DOPC  H16R36515   5.724   1.524   3.565 -3.1068 -0.1780 -0.9085
  265DOPC  H16S36516   5.822   1.388   3.512 -0.2654  0.1576  0.9047
  265DOPC  C21736517   5.659   1.458   3.369  0.1146  0.0580 -0.2891
  265DOPC  H17R36518   5.694   1.440   3.265  3.0602  0.8591  0.4818
  265DOPC  H17S36519   5.594   1.548   3.373 -1.9460 -1.3654 -0.0561
  265DOPC  C21836520   5.566   1.341   3.412 -0.5096  0.7460 -0.2777
  265DOPC  H18R36521   5.627   1.257   3.450 -2.4050  0.5636  2.6854
  265DOPC  H18S36522   5.515   1.318   3.315  0.6070  1.4247 -1.0527
  265DOPC  H18T36523   5.500   1.376   3.493  1.0505  1.6310  0.6540
  265DOPC   C3336524   4.817   1.102   2.609 -0.7030 -0.0892 -0.4381
  265DOPC   H3X36525   4.837   0.995   2.589 -0.8182  0.0307 -1.2209
  265DOPC   H3Y36526   4.723   1.134   2.559 -0.9256 -1.6357 -1.0401
  265DOPC   C3436527   4.792   1.149   2.750  0.0073  0.4383  0.0639
  265DOPC   H4X36528   4.758   1.254   2.747 -0.5367  0.2398 -1.2175
  265DOPC   H4Y36529   4.890   1.142   2.803  0.7115  1.4392 -1.0536
  265DOPC   C3536530   4.690   1.053   2.822 -0.1821 -0.0147 -0.8045
  265DOPC   H5X36531   4.714   0.953   2.780 -0.9672  0.1506 -1.6801
  265DOPC   H5Y36532   4.587   1.086   2.797 -0.6757 -0.9040 -0.0088
  265DOPC   C3636533   4.702   1.055   2.977 -0.0780 -0.5762 -0.5318
  265DOPC   H6X36534   4.795   0.998   3.001  0.6582  0.8960  0.2777
  265DOPC   H6Y36535   4.718   1.160   3.007  0.0759 -0.2097 -1.8321
  265DOPC   C3736536   4.574   0.993   3.046 -0.3758 -0.1572  0.2501
  265DOPC   H7X36537   4.482   1.048   3.017  1.3666  2.2249 -1.0991
  265DOPC   H7Y36538   4.565   0.886   3.020  0.2824  0.3005 -2.0649
  265DOPC   C3836539   4.591   1.004   3.203 -0.5398 -1.0583 -0.2029
  265DOPC   H8X36540   4.494   0.969   3.244  0.4431 -1.0883  2.2954
  265DOPC   H8Y36541   4.607   1.112   3.224 -1.3335 -0.6164 -1.6750
  265DOPC   C3936542   4.703   0.914   3.256 -0.7350 -0.3464  0.3747
  265DOPC   H9X36543   4.718   0.821   3.199  0.5383  0.9077 -1.4643
  265DOPC  C31036544   4.776   0.930   3.368  0.1344  0.4707  0.4887
  265DOPC  H10X36545   4.847   0.853   3.402 -0.5214 -0.4786 -0.2174
  265DOPC  C31136546   4.763   1.049   3.460  0.3924 -0.0232 -0.2634
  265DOPC  H11X36547   4.728   1.003   3.555  0.6727 -2.2836 -1.2064
  265DOPC  H11Y36548   4.673   1.110   3.437  0.3844  0.8312  1.8607
  265DOPC  C31236549   4.889   1.134   3.481  0.0864 -0.1203 -0.9569
  265DOPC  H12X36550   4.862   1.221   3.544 -0.5211 -0.7911 -0.2768
  265DOPC  H12Y36551   4.913   1.161   3.376 -1.5405 -0.8989 -1.5738
  265DOPC  C31336552   5.005   1.059   3.552  0.0548 -0.3429  0.1756
  265DOPC  H13X36553   4.960   0.994   3.630 -2.6373 -0.6477 -1.5078
  265DOPC  H13Y36554   5.062   0.996   3.480  0.6543  0.0896  0.2575
  265DOPC  C31436555   5.107   1.160   3.612 -0.4922  0.9437 -0.2144
  265DOPC  H14X36556   5.198   1.105   3.644 -0.7803  1.2753  1.2265
  265DOPC  H14Y36557   5.153   1.234   3.543  1.4073  0.2791  0.2620
  265DOPC  C31536558   5.054   1.239   3.736  0.0017  0.6083  0.3857
  265DOPC  H15X36559   5.058   1.169   3.822 -0.1725  1.3410  0.9929
  265DOPC  H15Y36560   4.953   1.285   3.730 -0.0668  0.8396  2.6231
  265DOPC  C31636561   5.150   1.355   3.770  0.4404 -0.5371 -0.3034
  265DOPC  H16X36562   5.166   1.399   3.669 -2.3832  1.5748  0.0209
  265DOPC  H16Y36563   5.094   1.421   3.840  0.1533 -1.9125  0.8158
  265DOPC  C31736564   5.284   1.308   3.821  1.1111 -0.7679 -1.1355
  265DOPC  H17X36565   5.261   1.260   3.919 -2.6188  1.8074 -0.5382
  265DOPC  H17Y36566   5.329   1.220   3.771  1.2401 -1.6226  0.4109
  265DOPC  C31836567   5.397   1.410   3.826  0.4409  0.3854 -0.2909
  265DOPC  H18X36568   5.357   1.502   3.875  0.4586  1.2771 -1.8863
  265DOPC  H18Y36569   5.483   1.374   3.887  0.7818 -1.9820 -2.0612
  265DOPC  H18Z36570   5.435   1.431   3.724  0.9267 -1.1530 -0.4449
  266DOPC     N36571   0.710  10.461   2.365 -0.2801 -0.4052  0.4025
  266DOPC   C1236572   0.619  10.377   2.454  0.1007 -0.4274  0.3866
  266DOPC  H12A36573   0.661  10.375   2.554 -0.1030  0.3526  0.4973
  266DOPC  H12B36574   0.623  10.277   2.414 -3.1167  0.2187 -2.0128
  266DOPC   C1336575   0.667  10.447   2.218  0.2334  0.6777 -0.4330
  266DOPC  H13A36576   0.743  10.497   2.159  1.6380  0.4687  1.1426
  266DOPC  H13B36577   0.672  10.342   2.192  0.7000  0.3629  0.8744
  266DOPC  H13C36578   0.571  10.495   2.206  0.3172  0.7099 -1.0115
  266DOPC   C1436579   0.848  10.411   2.357  0.0129 -0.3650  0.1058
  266DOPC  H14A36580   0.911  10.467   2.289 -0.2878  0.6826  0.6811
  266DOPC  H14B36581   0.904  10.424   2.449  1.3645  1.7183 -0.9266
  266DOPC  H14C36582   0.852  10.309   2.321 -0.5159 -0.1755 -0.4861
  266DOPC   C1536583   0.709  10.602   2.413 -0.5123 -0.2096  0.1735
  266DOPC  H15A36584   0.785  10.658   2.359 -0.5055 -0.7967 -0.4446
  266DOPC  H15B36585   0.732  10.611   2.518 -1.1100 -0.0398  0.2949
  266DOPC  H15C36586   0.609  10.637   2.396 -1.0908 -1.5200  0.7695
  266DOPC   C1136587   0.473  10.420   2.459 -0.4553 -0.2774 -0.4394
  266DOPC  H11A36588   0.421  10.360   2.536  1.1962  0.8014  1.5963
  266DOPC  H11B36589   0.465  10.521   2.503  0.5546  0.4269 -1.7826
  266DOPC     P36590   0.283  10.502   2.287 -0.3701 -1.1025 -0.4584
  266DOPC   O1336591   0.193  10.442   2.184 -0.1397  0.4207  0.0892
  266DOPC   O1436592   0.348  10.633   2.244 -0.2899 -0.7140  0.1248
  266DOPC   O1236593   0.401  10.405   2.333 -0.3019 -0.3432 -0.8732
  266DOPC   O1136594   0.201  10.524   2.425  0.1219 -0.3203 -0.0080
  266DOPC    C136595   0.131  10.408   2.481 -0.4446 -0.5286 -0.5705
  266DOPC    HA36596   0.188  10.312   2.484 -0.2496 -0.4170 -0.6768
  266DOPC    HB36597   0.031  10.400   2.434 -1.6744 -2.2812  2.1254
  266DOPC    C236598   0.092  10.430   2.628 -0.1423 -0.1280  0.4025
  266DOPC    HS36599   0.022  10.514   2.645 -0.7714 -0.9390  2.0236
  266DOPC   O2136600   0.222  10.461   2.686 -0.0069  0.2955  0.0541
  266DOPC   C2136601   0.240  10.500   2.812  0.0847 -0.1672  0.1283
  266DOPC   O2236602   0.160  10.496   2.902  0.1526 -0.2675  0.9251
  266DOPC   C2236603   0.387  10.535   2.828  0.0555  0.1340  0.3088
  266DOPC   H2R36604   0.395  10.641   2.797  2.9634 -0.2347 -0.4293
  266DOPC   H2S36605   0.454  10.479   2.760 -1.3528 -2.3379  0.8556
  266DOPC    C336606   0.020  10.302   2.695  0.1732  0.0438  0.1584
  266DOPC    HX36607  -0.023  10.326   2.795  0.1901 -1.2608  0.4914
  266DOPC    HY36608   0.106  10.233   2.706 -1.2106 -1.8197 -0.3412
  266DOPC   O3136609  -0.084  10.249   2.618  0.1147 -0.3199  0.4233
  266DOPC   C3136610  -0.069  10.132   2.556 -0.3174 -0.0260 -0.0331
  266DOPC   O3236611   0.033  10.062   2.572  0.3952 -0.0013 -0.0160
  266DOPC   C3236612  -0.184  10.102   2.470  0.8777 -0.7125  0.7252
  266DOPC   H2X36613  -0.252  10.189   2.467 -1.3615 -2.3492  0.9787
  266DOPC   H2Y36614  -0.161  10.084   2.362  0.1946 -0.3443  0.5151
  266DOPC   C2336615   0.438  10.546   2.968  0.6231 -0.4266  0.2451
  266DOPC   H3R36616   0.412  10.447   3.014 -2.2566 -0.2936 -0.8780
  266DOPC   H3S36617   0.382  10.633   3.009 -0.2672 -0.2330 -1.3052
  266DOPC   C2436618   0.588  10.559   2.982 -0.1574  0.2570  0.2203
  266DOPC   H4R36619   0.629  10.639   2.916  2.9468 -1.0498  0.3745
  266DOPC   H4S36620   0.644  10.472   2.942 -1.5381 -0.5694  0.0235
  266DOPC   C2536621   0.630  10.567   3.131 -0.0384  0.1827  0.4680
  266DOPC   H5R36622   0.590  10.480   3.188  0.5145  0.6900  1.6484
  266DOPC   H5S36623   0.586  10.658   3.177  0.3097  0.8344 -0.4445
  266DOPC   C2636624   0.777  10.577   3.156 -0.1008  0.1256 -0.7424
  266DOPC   H6R36625   0.816  10.669   3.109  0.5853  0.3615  0.2461
  266DOPC   H6S36626   0.829  10.490   3.111  1.9264  0.5005  0.7090
  266DOPC   C2736627   0.816  10.594   3.301 -0.7655 -0.2861 -0.5147
  266DOPC   H7R36628   0.766  10.681   3.350  2.6317  1.5103  0.0614
  266DOPC   H7S36629   0.923  10.623   3.311 -0.5178 -1.5895  0.8417
  266DOPC   C2836630   0.805  10.467   3.399 -0.1909 -0.1683 -0.2397
  266DOPC   H8R36631   0.727  10.394   3.371  1.4790 -1.5305 -1.6158
  266DOPC   H8S36632   0.780  10.504   3.500  1.0241  3.7057 -1.1903
  266DOPC   C2936633   0.927  10.379   3.374  0.2072 -0.8197  0.3859
  266DOPC   H9R36634   0.906  10.306   3.295 -1.3094 -1.9164  1.7311
  266DOPC  C21036635   1.031  10.360   3.456  0.4981  0.2631 -0.2699
  266DOPC  H10R36636   1.119  10.300   3.427  1.6144  1.2328  1.0174
  266DOPC  C21136637   1.054  10.440   3.585  0.5243 -0.4767 -0.1271
  266DOPC  H11R36638   1.066  10.380   3.677  0.5848 -0.5575 -0.1873
  266DOPC  H11S36639   0.973  10.514   3.604  0.0888 -0.7029 -1.0351
  266DOPC  C21236640   1.179  10.534   3.578  0.3356  0.4271  0.6363
  266DOPC  H12R36641   1.153  10.608   3.499 -1.7886 -1.4971 -0.5540
  266DOPC  H12S36642   1.269  10.473   3.553 -0.9226 -0.8367 -1.0033
  266DOPC  C21336643   1.209  10.605   3.712  0.0692  0.8085 -0.1359
  266DOPC  H13R36644   1.272  10.534   3.770  0.4479  0.2122 -1.2474
  266DOPC  H13S36645   1.116  10.625   3.768  0.4568  0.9478  0.4661
  266DOPC  C21436646   1.293  10.730   3.683 -0.2191  0.6793  0.4711
  266DOPC  H14R36647   1.247  10.780   3.595  2.0111  0.7844 -0.7095
  266DOPC  H14S36648   1.392  10.696   3.648  0.3760  2.4984  0.2995
  266DOPC  C21536649   1.314  10.832   3.796  0.1001  1.1923  1.2685
  266DOPC  H15R36650   1.373  10.914   3.750  1.1804 -1.0932 -1.7632
  266DOPC  H15S36651   1.387  10.792   3.870 -0.2420  1.7721  1.9317
  266DOPC  C21636652   1.191  10.893   3.873 -0.2314  0.8246  0.4673
  266DOPC  H16R36653   1.146  10.808   3.929  2.8603 -0.8714  0.5931
  266DOPC  H16S36654   1.116  10.934   3.803 -0.1731  3.4127  1.7953
  266DOPC  C21736655   1.225  11.008   3.967 -0.3782  0.0196 -0.3889
  266DOPC  H17R36656   1.266  11.092   3.907 -1.2388  1.6652  1.2438
  266DOPC  H17S36657   1.309  10.967   4.027  0.7440  2.2506 -0.3164
  266DOPC  C21836658   1.103  11.052   4.044  0.6652 -0.2044 -0.1044
  266DOPC  H18R36659   1.130  11.127   4.121  0.5879 -1.3305  1.0586
  266DOPC  H18S36660   1.043  10.970   4.089 -1.4210  0.8554 -0.8056
  266DOPC  H18T36661   1.040  11.122   3.985 -1.5502  0.2192  2.5693
  266DOPC   C3336662  -0.258   9.985   2.525 -0.9372 -0.4431 -0.0200
  266DOPC   H3X36663  -0.201   9.891   2.513 -1.7387 -1.1747  1.5341
  266DOPC   H3Y36664  -0.348   9.964   2.462  0.9869 -2.9191 -2.1694
  266DOPC   C3436665  -0.293   9.998   2.672 -0.1156  0.0405  0.0320
  266DOPC   H4X36666  -0.214   9.993   2.749  0.4149  0.7673 -0.4494
  266DOPC   H4Y36667  -0.348   9.907   2.704  0.1220  0.0696  0.5382
  266DOPC   C3536668  -0.383  10.123   2.711  1.3364  0.3545  0.1705
  266DOPC   H5X36669  -0.476  10.106   2.652  1.9364  2.5241 -1.5213
  266DOPC   H5Y36670  -0.344  10.222   2.680  0.1283  0.3458 -1.5650
  266DOPC   C3636671  -0.416  10.139   2.864 -0.0489  0.0047  0.7486
  266DOPC   H6X36672  -0.321  10.164   2.916 -1.5017 -0.7471  4.0457
  266DOPC   H6Y36673  -0.496  10.214   2.881  0.0540 -0.1146  1.8959
  266DOPC   C3736674  -0.466  10.004   2.930 -0.0919  0.3222  0.1089
  266DOPC   H7X36675  -0.529   9.948   2.858  1.8014 -2.3569  0.3699
  266DOPC   H7Y36676  -0.374   9.941   2.940  0.7300  1.4836  0.1026
  266DOPC   C3836677  -0.531  10.024   3.069  0.4969 -0.2004  0.4491
  266DOPC   H8X36678  -0.570   9.925   3.102 -1.9031  0.1938 -1.0239
  266DOPC   H8Y36679  -0.615  10.093   3.048  0.1797  0.1835  2.6633
  266DOPC   C3936680  -0.442  10.085   3.174 -0.2737 -0.2225 -0.2138
  266DOPC   H9X36681  -0.336  10.098   3.148  0.3039 -1.3053  1.4322
  266DOPC  C31036682  -0.481  10.140   3.289 -0.1573 -0.3706 -0.4256
  266DOPC  H10X36683  -0.393  10.174   3.344  0.7719 -1.0880 -1.4175
  266DOPC  C31136684  -0.618  10.151   3.340  0.2687 -0.3870 -0.2789
  266DOPC  H11X36685  -0.679  10.065   3.306 -0.3209  0.0719 -0.4067
  266DOPC  H11Y36686  -0.669  10.240   3.297  3.8889  0.9706 -2.1453
  266DOPC  C31236687  -0.639  10.154   3.492  0.1319 -0.1353 -0.4225
  266DOPC  H12X36688  -0.591  10.065   3.539  0.9934  0.0738 -0.8830
  266DOPC  H12Y36689  -0.749  10.156   3.504  0.1172  0.3364 -0.6274
  266DOPC  C31336690  -0.577  10.279   3.553  0.4919 -0.2429  0.2844
  266DOPC  H13X36691  -0.467  10.279   3.533  0.4708 -0.8665  0.1442
  266DOPC  H13Y36692  -0.608  10.377   3.510 -0.5829 -0.4285  0.6184
  266DOPC  C31436693  -0.620  10.281   3.705  0.5326  0.2151  0.1297
  266DOPC  H14X36694  -0.565  10.203   3.763  0.2597 -1.7294 -2.0528
  266DOPC  H14Y36695  -0.587  10.380   3.744 -1.9101  0.8519  0.7314
  266DOPC  C31536696  -0.768  10.270   3.732 -0.7992  0.1582  0.4006
  266DOPC  H15X36697  -0.794  10.164   3.708 -0.6128  0.2935 -0.4356
  266DOPC  H15Y36698  -0.831  10.327   3.661  1.3827  1.7407 -0.3699
  266DOPC  C31636699  -0.806  10.304   3.878  0.0950 -0.5231  0.4809
  266DOPC  H16X36700  -0.771  10.226   3.948  1.2552  1.0660  1.7565
  266DOPC  H16Y36701  -0.753  10.400   3.899  1.5843 -1.2942  0.3809
  266DOPC  C31736702  -0.959  10.330   3.891 -0.4001  0.4929 -0.5426
  266DOPC  H17X36703  -0.981  10.415   3.823 -0.5467  2.8350  2.2504
  266DOPC  H17Y36704  -1.011  10.247   3.838  1.4422 -0.8866 -0.2908
  266DOPC  C31836705  -1.028  10.365   4.020 -0.0778  0.7480 -0.5301
  266DOPC  H18X36706  -1.137  10.387   4.016 -0.1536  0.6840  0.7687
  266DOPC  H18Y36707  -1.033  10.280   4.091  0.0283 -0.0312 -1.4323
  266DOPC  H18Z36708  -0.978  10.451   4.069 -1.0600  1.9442 -1.5468
  267DOPC     N36709  11.334   2.762   2.012  0.1741 -0.0995 -0.1112
  267DOPC   C1236710  11.333   2.608   2.049 -0.2156 -0.0708  0.2050
  267DOPC  H12A36711  11.318   2.539   1.968  1.5991  0.2878 -0.4924
  267DOPC  H12B36712  11.251   2.591   2.117  1.4390 -1.8922  1.9026
  267DOPC   C1336713  11.434   2.778   1.902  0.0817  0.1817 -0.4049
  267DOPC  H13A36714  11.529   2.734   1.927  1.1258  1.6565 -1.5569
  267DOPC  H13B36715  11.399   2.738   1.808  1.7821  2.1207 -1.9462
  267DOPC  H13C36716  11.447   2.883   1.880  0.9744 -0.0021 -0.7806
  267DOPC   C1436717  11.380   2.840   2.129 -0.1352 -0.0866 -0.6049
  267DOPC  H14A36718  11.325   2.826   2.221  2.0645  1.1391  0.9815
  267DOPC  H14B36719  11.480   2.815   2.160 -0.7508 -0.4452  1.2072
  267DOPC  H14C36720  11.377   2.948   2.124 -0.6559 -0.0691 -0.0974
  267DOPC   C1536721  11.195   2.807   1.969 -0.9108  0.0761  0.2166
  267DOPC  H15A36722  11.113   2.767   2.027 -1.5522  0.4555 -0.4130
  267DOPC  H15B36723  11.173   2.771   1.870  0.1535 -0.4927  0.1655
  267DOPC  H15C36724  11.209   2.913   1.949 -0.6682 -0.4127 -2.5178
  267DOPC   C1136725  11.454   2.548   2.122 -0.4564 -0.1131 -0.0928
  267DOPC  H11A36726  11.495   2.612   2.203  0.6138 -0.0233 -0.6865
  267DOPC  H11B36727  11.425   2.453   2.172 -1.6158 -0.3813 -1.2185
  267DOPC     P36728  11.584   2.418   1.928  0.0765  0.0679  0.0321
  267DOPC   O1336729  11.709   2.448   1.859 -0.6337  0.1073  0.2014
  267DOPC   O1436730  11.466   2.397   1.851  0.3893 -0.4302 -0.0266
  267DOPC   O1236731  11.564   2.534   2.031 -0.0743 -0.2598 -0.3393
  267DOPC   O1136732  11.613   2.290   2.014 -0.6191 -0.7192  0.1968
  267DOPC    C136733  11.738   2.278   2.081  0.0682  0.2878  0.1920
  267DOPC    HA36734  11.790   2.373   2.105  0.9688 -0.4909  1.5177
  267DOPC    HB36735  11.807   2.221   2.015 -2.7030 -1.2466 -1.5675
  267DOPC    C236736  11.711   2.214   2.220  0.2661  0.3310  0.0035
  267DOPC    HS36737  11.815   2.209   2.260  0.5629  0.3401 -0.7430
  267DOPC   O2136738  11.648   2.078   2.198  0.2590 -0.5805  0.2691
  267DOPC   C2136739  11.702   1.987   2.275 -0.3848  0.5981  0.5313
  267DOPC   O2236740  11.811   1.995   2.329 -0.2470  0.1051  0.4386
  267DOPC   C2236741  11.604   1.859   2.281  0.0282  0.0072 -0.5237
  267DOPC   H2R36742  11.636   1.789   2.201 -0.8192  0.4293 -1.2608
  267DOPC   H2S36743  11.508   1.911   2.258  0.8357  1.7300 -0.1696
  267DOPC    C336744  11.622   2.300   2.317  0.1293 -0.5366 -0.2186
  267DOPC    HX36745  11.518   2.291   2.279  0.7993 -0.1055 -2.2974
  267DOPC    HY36746  11.666   2.402   2.322 -0.2912 -0.3803  0.5319
  267DOPC   O3136747  11.629   2.240   2.451  0.4678  0.0347  0.6121
  267DOPC   C3136748  11.573   2.315   2.546  0.3845 -0.4821 -0.3904
  267DOPC   O3236749  11.519   2.424   2.518  0.3703  0.4846 -0.6968
  267DOPC   C3236750  11.582   2.249   2.683 -0.6492 -0.1280  0.2542
  267DOPC   H2X36751  11.517   2.160   2.674 -0.8456 -0.0403  0.7999
  267DOPC   H2Y36752  11.682   2.209   2.709 -0.7790  0.5685  1.9357
  267DOPC   C2336753  11.607   1.791   2.419 -0.7439  0.0225  0.6824
  267DOPC   H3R36754  11.710   1.749   2.425 -0.2676  0.1555 -3.4018
  267DOPC   H3S36755  11.539   1.704   2.425  1.1778 -1.5091  1.4122
  267DOPC   C2436756  11.577   1.893   2.530  0.3696  0.7303 -0.3151
  267DOPC   H4R36757  11.477   1.931   2.501 -0.0590 -1.2772 -1.6700
  267DOPC   H4S36758  11.644   1.981   2.531  3.3886 -1.4114  0.6708
  267DOPC   C2536759  11.592   1.825   2.666  0.2677  0.2888 -0.1355
  267DOPC   H5R36760  11.702   1.809   2.674  0.4869  0.5198 -2.0800
  267DOPC   H5S36761  11.535   1.730   2.661  0.5867  0.1248 -0.8086
  267DOPC   C2636762  11.544   1.901   2.785  0.6352  0.0898  0.5982
  267DOPC   H6R36763  11.444   1.949   2.773  0.9110  0.8469  1.1814
  267DOPC   H6S36764  11.614   1.981   2.817  0.9581 -0.4404  1.2481
  267DOPC   C2736765  11.540   1.814   2.911 -0.1905 -0.0544 -0.1852
  267DOPC   H7R36766  11.645   1.787   2.932 -0.5649  0.4901  2.8310
  267DOPC   H7S36767  11.475   1.725   2.899 -0.3013 -0.4789  2.9006
  267DOPC   C2836768  11.493   1.900   3.034 -0.7454 -0.7934 -0.1896
  267DOPC   H8R36769  11.552   1.994   3.027  0.2590 -1.2788  1.2771
  267DOPC   H8S36770  11.516   1.850   3.130  0.5068 -1.2409 -0.6959
  267DOPC   C2936771  11.345   1.925   3.035 -0.4720 -0.6409 -0.1324
  267DOPC   H9R36772  11.321   1.961   2.935  0.5439  0.2757 -0.0653
  267DOPC  C21036773  11.246   1.894   3.123 -1.1504  0.5993 -0.2120
  267DOPC  H10R36774  11.143   1.930   3.106 -1.6397 -1.4727 -2.1702
  267DOPC  C21136775  11.276   1.835   3.257  0.0430  0.2107 -0.2246
  267DOPC  H11R36776  11.272   1.914   3.336  1.1835 -0.0524  0.1058
  267DOPC  H11S36777  11.381   1.801   3.267  0.1020  0.2157 -0.8129
  267DOPC  C21236778  11.177   1.721   3.287 -0.2172 -0.1588  0.0912
  267DOPC  H12R36779  11.220   1.627   3.244 -1.1184 -2.0726  3.0901
  267DOPC  H12S36780  11.078   1.745   3.244  0.1827 -0.1631 -0.8705
  267DOPC  C21336781  11.160   1.699   3.441 -0.0699 -0.3498  0.2770
  267DOPC  H13R36782  11.261   1.680   3.482  0.8004  1.1663 -1.0411
  267DOPC  H13S36783  11.089   1.613   3.448  0.2168 -0.7992 -1.6486
  267DOPC  C21436784  11.101   1.813   3.529  0.2332 -0.3017 -0.2187
  267DOPC  H14R36785  11.014   1.860   3.477  2.1638  0.6683 -2.8242
  267DOPC  H14S36786  11.179   1.891   3.516 -1.2039  1.0335 -1.2317
  267DOPC  C21536787  11.064   1.785   3.674  0.4612 -0.1925 -0.7874
  267DOPC  H15R36788  11.151   1.742   3.729 -0.4701  0.2336  1.1016
  267DOPC  H15S36789  10.977   1.716   3.680  1.7919 -1.9485 -0.5899
  267DOPC  C21636790  11.023   1.915   3.750 -0.4112  0.2035 -0.3210
  267DOPC  H16R36791  10.927   1.958   3.715 -0.6257 -1.0618 -1.3259
  267DOPC  H16S36792  11.106   1.989   3.739 -1.1437  1.1025  0.0410
  267DOPC  C21736793  11.020   1.881   3.901  0.2940  0.3268 -0.0585
  267DOPC  H17R36794  11.029   1.976   3.958  0.9471  1.0862 -1.3756
  267DOPC  H17S36795  11.098   1.810   3.936 -0.0274  0.7495  1.5967
  267DOPC  C21836796  10.889   1.823   3.934  0.3849  0.5433 -0.3903
  267DOPC  H18R36797  10.857   1.738   3.870  1.1394  0.8087 -1.1380
  267DOPC  H18S36798  10.806   1.897   3.921  1.2406  1.2859 -1.8914
  267DOPC  H18T36799  10.870   1.791   4.039 -2.2076  0.5109 -0.7978
  267DOPC   C3336800  11.533   2.347   2.795  0.1400 -0.2825  0.5664
  267DOPC   H3X36801  11.442   2.405   2.766  0.9975  0.7565 -0.1011
  267DOPC   H3Y36802  11.613   2.420   2.820  1.7950 -0.8094 -2.6042
  267DOPC   C3436803  11.503   2.275   2.926 -0.1067 -0.3406  0.3978
  267DOPC   H4X36804  11.597   2.226   2.960  0.7762  1.4561  0.6412
  267DOPC   H4Y36805  11.425   2.198   2.908  0.4149 -0.1402 -3.4113
  267DOPC   C3536806  11.465   2.375   3.036 -0.0176  0.1899  0.0941
  267DOPC   H5X36807  11.376   2.440   3.021  0.2699  0.7036  0.5770
  267DOPC   H5Y36808  11.549   2.446   3.047  0.5530 -0.3148 -0.8663
  267DOPC   C3636809  11.453   2.314   3.170  0.3707 -0.0174 -0.2888
  267DOPC   H6X36810  11.373   2.236   3.165  0.3118 -0.0185  0.4765
  267DOPC   H6Y36811  11.542   2.252   3.192  1.1891  1.7031  1.5980
  267DOPC   C3736812  11.413   2.418   3.284 -0.0402  0.1192  0.3278
  267DOPC   H7X36813  11.480   2.505   3.271  0.3644 -0.1080  0.8583
  267DOPC   H7Y36814  11.306   2.440   3.265 -0.1170 -0.0455  0.5626
  267DOPC   C3836815  11.409   2.353   3.422 -0.7496 -0.2694 -0.3070
  267DOPC   H8X36816  11.495   2.285   3.435  0.1446  0.9582  0.4271
  267DOPC   H8Y36817  11.317   2.291   3.436  0.5778 -2.1714  0.3371
  267DOPC   C3936818  11.400   2.459   3.530  0.4196 -0.1273  0.4333
  267DOPC   H9X36819  11.343   2.548   3.500  1.2540 -0.2774 -1.7362
  267DOPC  C31036820  11.461   2.459   3.646 -0.0770  0.1797 -0.5465
  267DOPC  H10X36821  11.453   2.548   3.710 -1.5612 -0.9172  0.8655
  267DOPC  C31136822  11.546   2.351   3.706 -1.0083  0.4600  0.2608
  267DOPC  H11X36823  11.628   2.396   3.766  0.5498 -1.3869 -0.4142
  267DOPC  H11Y36824  11.582   2.285   3.625 -0.4526  0.0378  0.8433
  267DOPC  C31236825  11.484   2.253   3.807  0.0716  0.6849  0.0668
  267DOPC  H12X36826  11.546   2.160   3.805 -0.9123 -0.0393 -3.1736
  267DOPC  H12Y36827  11.387   2.214   3.769 -0.3695  0.0224  1.7611
  267DOPC  C31336828  11.468   2.297   3.951 -0.1564  0.2289  0.1701
  267DOPC  H13X36829  11.562   2.319   4.006 -1.3855 -1.2712  3.1370
  267DOPC  H13Y36830  11.413   2.393   3.960 -1.6295 -0.4318 -1.2881
  267DOPC  C31436831  11.382   2.207   4.042  0.2100  0.6519  0.5569
  267DOPC  H14X36832  11.283   2.199   3.993  1.0752  1.9251 -1.5625
  267DOPC  H14Y36833  11.429   2.107   4.033  0.8307  0.9632  0.2651
  267DOPC  C31536834  11.389   2.242   4.193  0.0429  0.1430  0.6353
  267DOPC  H15X36835  11.488   2.211   4.233  0.2497  0.4008  0.3257
  267DOPC  H15Y36836  11.306   2.185   4.239 -0.3423 -0.3790 -0.6642
  267DOPC  C31636837  11.373   2.389   4.216  0.3967 -0.1461 -0.3823
  267DOPC  H16X36838  11.450   2.458   4.175 -1.1973  1.9670  0.0219
  267DOPC  H16Y36839  11.280   2.430   4.171 -0.0346  0.9658  1.4297
  267DOPC  C31736840  11.373   2.416   4.369 -0.2388 -0.3187 -0.4294
  267DOPC  H17X36841  11.471   2.378   4.405  0.4399  1.6378 -0.0818
  267DOPC  H17Y36842  11.373   2.527   4.374 -0.8524 -0.3752  2.2056
  267DOPC  C31836843  11.253   2.362   4.447 -0.2233 -0.5176 -0.5670
  267DOPC  H18X36844  11.248   2.251   4.457 -0.2144 -0.4417  0.4184
  267DOPC  H18Y36845  11.239   2.415   4.544 -1.1479  0.4068 -1.1791
  267DOPC  H18Z36846  11.162   2.400   4.395 -0.0698  0.6562 -0.0126
  268DOPC     N36847   7.912   9.908   1.909 -0.2893 -0.3658 -0.1107
  268DOPC   C1236848   8.031   9.868   1.816 -0.6228 -0.0738  0.4717
  268DOPC  H12A36849   8.128   9.891   1.858  0.1710  0.5493 -1.5576
  268DOPC  H12B36850   8.029   9.931   1.728 -0.9384 -0.9812 -0.1814
  268DOPC   C1336851   7.925   9.837   2.047 -0.5943 -0.7462 -0.2963
  268DOPC  H13A36852   7.923   9.729   2.042 -1.2800 -0.8318  1.1254
  268DOPC  H13B36853   8.017   9.865   2.096 -1.8614  1.1149  1.1510
  268DOPC  H13C36854   7.836   9.862   2.103  1.0606  0.3904  1.9993
  268DOPC   C1436855   7.787   9.875   1.839 -0.1329 -0.3081 -0.3740
  268DOPC  H14A36856   7.807   9.913   1.740 -0.0900  1.3317  0.2422
  268DOPC  H14B36857   7.770   9.768   1.832  1.1766 -0.5481 -0.2594
  268DOPC  H14C36858   7.706   9.925   1.889 -0.9242 -0.5728 -1.3772
  268DOPC   C1536859   7.909  10.053   1.938 -0.4421 -0.4081  0.1371
  268DOPC  H15A36860   7.807  10.080   1.960 -1.3399 -2.5295 -1.0607
  268DOPC  H15B36861   7.942  10.101   1.847  0.5945 -0.1300  0.6535
  268DOPC  H15C36862   7.975  10.082   2.017 -1.0871  1.9393 -0.1125
  268DOPC   C1136863   8.038   9.723   1.773  0.3765 -0.0822  0.2126
  268DOPC  H11A36864   7.954   9.699   1.703  1.1930 -2.0166 -0.1633
  268DOPC  H11B36865   8.134   9.708   1.719  0.3701 -1.9210  0.6478
  268DOPC     P36866   7.986   9.498   1.910 -0.0470 -0.0383  0.5356
  268DOPC   O1336867   8.088   9.389   1.896 -0.3862  0.0552 -0.5380
  268DOPC   O1436868   7.856   9.483   1.841 -0.0406 -0.8101 -0.2938
  268DOPC   O1236869   8.049   9.636   1.882 -0.0295  0.3786  0.0454
  268DOPC   O1136870   7.952   9.523   2.063 -0.2308  0.0228  0.3268
  268DOPC    C136871   8.056   9.480   2.148 -0.0323  0.4515 -0.3738
  268DOPC    HA36872   8.143   9.548   2.147 -0.6876  1.3715  1.1154
  268DOPC    HB36873   8.092   9.379   2.117 -1.5570  0.3303 -1.8580
  268DOPC    C236874   8.008   9.485   2.301  0.1944  0.2537 -0.6746
  268DOPC    HS36875   8.095   9.462   2.367 -0.7803  0.4050  0.7023
  268DOPC   O2136876   7.897   9.386   2.313 -0.1360 -0.1057  0.3468
  268DOPC   C2136877   7.928   9.256   2.326 -0.4635  0.3742  0.1356
  268DOPC   O2236878   8.040   9.204   2.317  0.2465 -0.0069 -0.0966
  268DOPC   C2236879   7.798   9.183   2.369  0.2816  0.2125 -0.5010
  268DOPC   H2R36880   7.738   9.181   2.276  0.9681  0.8523 -0.9666
  268DOPC   H2S36881   7.751   9.255   2.439  0.5133 -0.2798  0.1773
  268DOPC    C336882   7.953   9.622   2.337 -0.7634  0.5252 -0.2059
  268DOPC    HX36883   7.861   9.640   2.278 -1.3598  1.8716  1.0833
  268DOPC    HY36884   8.026   9.701   2.306  1.3697 -1.3029 -0.1253
  268DOPC   O3136885   7.926   9.637   2.475 -0.4822 -0.0875 -0.3126
  268DOPC   C3136886   7.795   9.648   2.510 -0.7525  0.7658 -0.1521
  268DOPC   O3236887   7.699   9.617   2.437 -0.2986 -0.1224 -0.0197
  268DOPC   C3236888   7.790   9.687   2.656 -0.1662  0.7070 -0.5895
  268DOPC   H2X36889   7.875   9.750   2.687  1.0613 -0.5657 -1.2587
  268DOPC   H2Y36890   7.705   9.758   2.669  0.0590  0.7686  0.6364
  268DOPC   C2336891   7.814   9.037   2.415 -0.5001 -0.0646  0.2560
  268DOPC   H3R36892   7.857   8.973   2.335 -0.5015  0.9235 -0.5558
  268DOPC   H3S36893   7.716   8.986   2.410  1.2016 -3.5980 -0.6789
  268DOPC   C2436894   7.893   9.021   2.546 -0.1684 -0.4981  0.7566
  268DOPC   H4R36895   7.849   9.084   2.626 -0.4480 -0.7923  0.8330
  268DOPC   H4S36896   7.996   9.063   2.549 -1.1778  2.2975  0.1167
  268DOPC   C2536897   7.902   8.884   2.605 -0.4438  0.5333 -0.7790
  268DOPC   H5R36898   7.973   8.816   2.555  0.9291  1.7038 -0.4916
  268DOPC   H5S36899   7.802   8.836   2.607 -0.1595 -0.0756  0.7725
  268DOPC   C2636900   7.934   8.902   2.753  0.2894  0.3631 -0.5140
  268DOPC   H6R36901   7.851   8.956   2.803  0.0181  0.2668 -0.8573
  268DOPC   H6S36902   8.017   8.976   2.762  0.5515  0.0825 -0.5786
  268DOPC   C2736903   7.960   8.770   2.829  0.1159  0.7118  0.4905
  268DOPC   H7R36904   8.020   8.705   2.761 -1.6332 -1.9984  1.3644
  268DOPC   H7S36905   7.862   8.719   2.838  0.6961 -1.1661 -2.3554
  268DOPC   C2836906   8.029   8.792   2.962 -0.4137 -0.8385  0.1055
  268DOPC   H8R36907   8.028   8.692   3.010 -1.1558 -0.2949  1.2693
  268DOPC   H8S36908   7.974   8.855   3.036  1.4272 -0.2789  1.0689
  268DOPC   C2936909   8.166   8.857   2.949 -0.8062  0.6932 -0.7115
  268DOPC   H9R36910   8.219   8.805   2.868 -0.7376  1.2672 -1.0369
  268DOPC  C21036911   8.208   8.975   3.002 -0.7208  0.7964 -0.1661
  268DOPC  H10R36912   8.311   9.010   2.985 -0.3934 -0.8896 -2.0752
  268DOPC  C21136913   8.145   9.065   3.106 -0.3153  0.7318 -0.1722
  268DOPC  H11R36914   8.210   9.084   3.194 -1.8224 -1.0347  1.4003
  268DOPC  H11S36915   8.061   9.002   3.143  1.4503 -1.3541  0.5267
  268DOPC  C21236916   8.110   9.205   3.060 -0.4304  0.1861  0.7482
  268DOPC  H12R36917   8.038   9.245   3.134 -1.2309 -1.9637  1.1979
  268DOPC  H12S36918   8.055   9.207   2.963  1.0497  0.3089 -0.1258
  268DOPC  C21336919   8.228   9.298   3.066 -0.5687 -0.0342  0.6861
  268DOPC  H13R36920   8.308   9.265   2.996 -1.2612  0.4646 -0.3712
  268DOPC  H13S36921   8.271   9.303   3.168  0.8929  0.1506  0.0912
  268DOPC  C21436922   8.183   9.451   3.042 -0.6349  1.0554 -0.1172
  268DOPC  H14R36923   8.273   9.515   3.055 -1.0440  1.4285  1.0756
  268DOPC  H14S36924   8.118   9.482   3.127 -0.7932  0.7517 -0.1262
  268DOPC  C21536925   8.120   9.476   2.908  0.4041  0.3348  0.6489
  268DOPC  H15R36926   8.079   9.579   2.917  0.6791  0.4683  0.3899
  268DOPC  H15S36927   8.035   9.408   2.887  1.2416 -0.1234 -1.5409
  268DOPC  C21636928   8.211   9.460   2.785 -0.7439  0.2596  0.0410
  268DOPC  H16R36929   8.320   9.471   2.807 -0.6931  0.1427 -0.1480
  268DOPC  H16S36930   8.185   9.533   2.705 -0.3998  1.3702  0.9261
  268DOPC  C21736931   8.194   9.321   2.713  0.4667 -0.6907  0.3628
  268DOPC  H17R36932   8.092   9.330   2.670  0.8445  0.2836 -0.3926
  268DOPC  H17S36933   8.192   9.234   2.782  1.2732 -0.0975  1.1543
  268DOPC  C21836934   8.278   9.303   2.592  0.7730 -0.5624 -0.1471
  268DOPC  H18R36935   8.279   9.201   2.549 -0.2940 -1.3875  1.6462
  268DOPC  H18S36936   8.384   9.329   2.612  0.7168 -0.4076 -0.0398
  268DOPC  H18T36937   8.245   9.373   2.512  2.3514  1.0692  0.5522
  268DOPC   C3336938   7.783   9.564   2.756 -0.0989  0.8465  0.1453
  268DOPC   H3X36939   7.781   9.594   2.863  1.8516 -1.5954  0.9643
  268DOPC   H3Y36940   7.870   9.503   2.723 -0.9310  1.2392 -3.1078
  268DOPC   C3436941   7.659   9.469   2.748 -0.8584 -0.0016  0.7818
  268DOPC   H4X36942   7.680   9.366   2.783  0.3396  0.1816  0.6502
  268DOPC   H4Y36943   7.639   9.461   2.638  1.3212  0.4415  0.3116
  268DOPC   C3536944   7.538   9.515   2.828 -0.2900 -0.7134 -0.0439
  268DOPC   H5X36945   7.508   9.619   2.804  0.0662 -0.8235 -0.9980
  268DOPC   H5Y36946   7.563   9.527   2.936 -1.1428 -1.7515  0.2899
  268DOPC   C3636947   7.419   9.423   2.814 -0.0381 -0.0901  0.5891
  268DOPC   H6X36948   7.377   9.415   2.712  0.7179 -0.3243  0.2898
  268DOPC   H6Y36949   7.450   9.321   2.845 -0.1957 -0.0024  1.0552
  268DOPC   C3736950   7.303   9.455   2.909  0.6051 -0.6677 -0.3284
  268DOPC   H7X36951   7.329   9.456   3.017 -1.1073 -0.7623  0.1158
  268DOPC   H7Y36952   7.273   9.559   2.882 -0.1075 -1.5072 -3.1095
  268DOPC   C3836953   7.186   9.359   2.888 -0.5681  0.7619 -0.0274
  268DOPC   H8X36954   7.210   9.253   2.909  0.6832  1.1770  0.7312
  268DOPC   H8Y36955   7.150   9.359   2.783 -0.7336 -2.5721 -0.0851
  268DOPC   C3936956   7.071   9.402   2.978 -0.7145 -0.3033 -0.0702
  268DOPC   H9X36957   7.057   9.511   2.983 -4.2056 -0.5795 -1.0757
  268DOPC  C31036958   6.981   9.325   3.037  0.0716  0.3617  0.0439
  268DOPC  H10X36959   6.905   9.362   3.108 -0.1583 -1.4905  0.8348
  268DOPC  C31136960   6.979   9.174   3.025  0.3053 -0.3053 -0.1577
  268DOPC  H11X36961   7.033   9.142   2.932 -0.5849 -0.6151 -0.5766
  268DOPC  H11Y36962   6.873   9.142   3.022 -0.1405  1.1097 -0.2612
  268DOPC  C31236963   7.038   9.093   3.141 -0.5158  0.2345 -0.6029
  268DOPC  H12X36964   7.114   9.147   3.201 -2.0077 -1.4663  3.0805
  268DOPC  H12Y36965   7.077   8.995   3.104 -2.2170 -0.3130 -1.0156
  268DOPC  C31336966   6.922   9.054   3.232  0.3544  0.2768 -0.2583
  268DOPC  H13X36967   6.864   9.145   3.258 -0.6557  0.5970 -3.2474
  268DOPC  H13Y36968   6.854   8.981   3.182  0.8054 -0.9726  0.8768
  268DOPC  C31436969   6.968   8.994   3.369 -0.4447  0.9952  0.1786
  268DOPC  H14X36970   7.028   8.905   3.340  0.1029  1.9782 -1.8638
  268DOPC  H14Y36971   7.039   9.062   3.420  3.3813 -1.7516 -1.0546
  268DOPC  C31536972   6.854   8.949   3.460 -0.0804  0.1504 -0.0829
  268DOPC  H15X36973   6.783   8.880   3.409 -1.2146  0.5166  0.9445
  268DOPC  H15Y36974   6.798   9.042   3.485  1.9510  1.3980  0.0332
  268DOPC  C31636975   6.911   8.891   3.590  0.5621  0.1978  0.0819
  268DOPC  H16X36976   6.916   8.781   3.580 -0.5658  0.1255  0.1938
  268DOPC  H16Y36977   7.011   8.932   3.614  0.7409 -1.0910  1.7008
  268DOPC  C31736978   6.829   8.922   3.725  0.2602 -0.2525  0.9250
  268DOPC  H17X36979   6.848   9.028   3.752 -2.2806  0.8123 -1.0507
  268DOPC  H17Y36980   6.724   8.903   3.693  0.5416  0.4440 -0.5135
  268DOPC  C31836981   6.857   8.831   3.835  0.1968 -0.0713 -0.2267
  268DOPC  H18X36982   6.781   8.830   3.917  1.6856 -1.1897  1.2099
  268DOPC  H18Y36983   6.853   8.722   3.815  1.2531 -0.4979  1.6603
  268DOPC  H18Z36984   6.954   8.851   3.885 -0.0758  0.0215  0.2724
  269DOPC     N36985   4.803   7.135   1.923  0.6511 -0.1598 -0.0895
  269DOPC   C1236986   4.881   7.012   1.908  0.2585  0.2494 -0.8214
  269DOPC  H12A36987   4.964   7.026   1.841 -0.5335 -0.0140 -1.8779
  269DOPC  H12B36988   4.818   6.938   1.861  0.3691 -1.4437  1.5239
  269DOPC   C1336989   4.881   7.239   2.000 -0.2762 -0.0599 -0.0111
  269DOPC  H13A36990   4.822   7.329   2.009  2.0299  1.3973  2.1897
  269DOPC  H13B36991   4.899   7.194   2.097  0.8995 -1.1415 -0.6988
  269DOPC  H13C36992   4.979   7.258   1.959 -0.4769 -1.4847 -1.2373
  269DOPC   C1436993   4.680   7.111   2.003  0.7136 -0.0947 -0.5131
  269DOPC  H14A36994   4.714   7.079   2.101  0.5152  0.7269 -0.1717
  269DOPC  H14B36995   4.618   7.196   2.025 -0.8411 -1.5267  1.0202
  269DOPC  H14C36996   4.624   7.025   1.969  0.1137  0.2376 -0.3751
  269DOPC   C1536997   4.768   7.196   1.787 -0.0580  0.0862  0.0623
  269DOPC  H15A36998   4.862   7.217   1.737  0.4749 -1.1599  0.4866
  269DOPC  H15B36999   4.719   7.289   1.810  1.2017  0.8747 -0.3203
  269DOPC  H15C37000   4.710   7.126   1.728 -1.8103  1.4711  0.0538
  269DOPC   C1137001   4.933   6.935   2.027  0.3731 -0.1815 -0.0623
  269DOPC  H11A37002   4.984   6.842   1.994 -1.9297 -1.6094  0.1946
  269DOPC  H11B37003   5.019   6.989   2.072 -0.4841  2.1392 -1.0917
  269DOPC     P37004   4.745   6.773   2.096  0.5029 -0.2909  0.4506
  269DOPC   O1337005   4.849   6.667   2.090  0.5196 -0.2662  0.1752
  269DOPC   O1437006   4.659   6.792   1.974 -0.9217 -0.4138 -0.0169
  269DOPC   O1237007   4.823   6.912   2.120 -0.4651  0.2340 -0.2268
  269DOPC   O1137008   4.645   6.748   2.215 -0.0531 -0.0247 -0.0156
  269DOPC    C137009   4.546   6.834   2.263  0.4644  0.5586 -0.1979
  269DOPC    HA37010   4.448   6.782   2.256  0.0509  0.9131  2.2395
  269DOPC    HB37011   4.541   6.929   2.206  1.7324  0.6324 -0.2204
  269DOPC    C237012   4.581   6.874   2.415 -0.3731 -0.4035 -0.3369
  269DOPC    HS37013   4.511   6.946   2.462  1.0395 -1.5598  4.0242
  269DOPC   O2137014   4.718   6.914   2.442 -0.0353  0.4793  0.5785
  269DOPC   C2137015   4.750   7.028   2.380 -0.1727  0.4516  0.4932
  269DOPC   O2237016   4.668   7.105   2.329 -0.0300  0.2942 -0.0689
  269DOPC   C2237017   4.901   7.047   2.384 -0.3716  0.0881 -0.0784
  269DOPC   H2R37018   4.933   7.040   2.278 -0.5082  1.2491 -0.2031
  269DOPC   H2S37019   4.955   6.973   2.448 -1.5096 -0.3748  0.3731
  269DOPC    C337020   4.561   6.749   2.509 -0.4665 -0.0597 -0.5554
  269DOPC    HX37021   4.643   6.675   2.503 -0.1688  0.2666 -0.5963
  269DOPC    HY37022   4.468   6.702   2.471  0.1429 -1.0516 -0.8591
  269DOPC   O3137023   4.538   6.800   2.646  0.0678 -0.0704 -0.3546
  269DOPC   C3137024   4.637   6.796   2.727 -0.3111  0.4663 -0.6247
  269DOPC   O3237025   4.747   6.749   2.705 -0.0147 -0.4575 -0.1900
  269DOPC   C3237026   4.584   6.842   2.867 -0.3864 -0.0909 -0.2983
  269DOPC   H2X37027   4.657   6.818   2.948 -1.2072  0.7735  0.7385
  269DOPC   H2Y37028   4.559   6.950   2.876 -0.7523 -0.3062  2.0872
  269DOPC   C2337029   4.931   7.193   2.416  1.0219  0.2144 -0.8569
  269DOPC   H3R37030   4.941   7.210   2.526 -0.2291 -0.5835 -0.6041
  269DOPC   H3S37031   4.845   7.257   2.387 -0.7318 -1.6172  0.0758
  269DOPC   C2437032   5.060   7.234   2.350  0.5449  0.4573 -0.2164
  269DOPC   H4R37033   5.038   7.262   2.245 -2.4301 -0.4359  0.0833
  269DOPC   H4S37034   5.135   7.153   2.354  0.8143  0.6690  3.8695
  269DOPC   C2537035   5.136   7.349   2.415  0.2041  0.3132 -0.1080
  269DOPC   H5R37036   5.062   7.425   2.447 -0.2078  1.0534 -2.6018
  269DOPC   H5S37037   5.203   7.391   2.338 -1.9138  0.0260 -2.2211
  269DOPC   C2637038   5.234   7.296   2.525 -0.1700  0.3900 -0.0629
  269DOPC   H6R37039   5.304   7.219   2.487 -0.2011  0.1024  0.4507
  269DOPC   H6S37040   5.176   7.244   2.605  1.7334 -0.3851  0.8588
  269DOPC   C2737041   5.320   7.401   2.601  0.1677  0.0827 -0.2614
  269DOPC   H7R37042   5.372   7.446   2.514 -0.0554 -0.4298 -0.6614
  269DOPC   H7S37043   5.377   7.336   2.672 -2.2650 -0.8295  0.9502
  269DOPC   C2837044   5.237   7.499   2.676  0.1572 -0.0887 -0.2422
  269DOPC   H8R37045   5.169   7.553   2.608  1.0501  2.6462  0.8899
  269DOPC   H8S37046   5.309   7.582   2.695 -0.3225  0.1809  0.4218
  269DOPC   C2937047   5.160   7.449   2.796  0.4864  0.4741  0.8980
  269DOPC   H9R37048   5.072   7.386   2.778 -0.0619  1.7290 -1.0814
  269DOPC  C21037049   5.185   7.495   2.916 -0.1147  0.1490 -0.0537
  269DOPC  H10R37050   5.116   7.466   2.997 -0.4924 -1.4644 -0.9093
  269DOPC  C21137051   5.300   7.583   2.967 -0.3753  0.0302  0.1596
  269DOPC  H11R37052   5.260   7.649   3.047 -0.8656 -0.2872  0.1835
  269DOPC  H11S37053   5.331   7.653   2.886  1.5527  1.5615  2.1202
  269DOPC  C21237054   5.428   7.514   3.030 -0.4116 -0.5183 -0.5905
  269DOPC  H12R37055   5.500   7.597   3.048 -1.9487  0.4609  1.5282
  269DOPC  H12S37056   5.468   7.442   2.956  2.0162 -1.8642  1.8342
  269DOPC  C21337057   5.404   7.431   3.162 -1.0337 -0.3132  0.1773
  269DOPC  H13R37058   5.500   7.418   3.216 -1.1709  0.1349  0.5361
  269DOPC  H13S37059   5.365   7.329   3.139  1.1200 -1.1438 -0.0631
  269DOPC  C21437060   5.318   7.509   3.265  0.1183 -0.0274  0.3154
  269DOPC  H14R37061   5.211   7.505   3.235  0.4911  4.0453 -2.1585
  269DOPC  H14S37062   5.345   7.617   3.265  1.6400 -0.3818 -0.8512
  269DOPC  C21537063   5.341   7.450   3.406  0.4630 -0.0710  0.3844
  269DOPC  H15R37064   5.450   7.428   3.411  0.3072 -1.4468 -1.2661
  269DOPC  H15S37065   5.286   7.354   3.418  0.6600 -0.2607 -0.1639
  269DOPC  C21637066   5.305   7.543   3.518 -0.2015 -0.7456  0.8677
  269DOPC  H16R37067   5.197   7.566   3.521 -0.3357 -1.4396  2.6946
  269DOPC  H16S37068   5.365   7.636   3.500 -0.4094 -0.5472  1.1939
  269DOPC  C21737069   5.343   7.493   3.660 -0.1574  0.1171 -0.3114
  269DOPC  H17R37070   5.325   7.383   3.657 -1.2395  0.2274  1.0379
  269DOPC  H17S37071   5.280   7.535   3.741 -1.2669  0.0116 -1.0904
  269DOPC  C21837072   5.489   7.525   3.695  0.3585 -0.1614 -0.5512
  269DOPC  H18R37073   5.496   7.632   3.725  0.0183  0.2407 -1.8374
  269DOPC  H18S37074   5.553   7.500   3.608  2.2002 -3.8866  1.6764
  269DOPC  H18T37075   5.533   7.458   3.772 -2.2285 -2.2113 -0.7226
  269DOPC   C3337076   4.448   6.787   2.909 -0.0536 -0.4397  0.3289
  269DOPC   H3X37077   4.446   6.677   2.892  0.4336 -0.7407  2.0868
  269DOPC   H3Y37078   4.375   6.833   2.838 -0.0150  0.4154  0.8294
  269DOPC   C3437079   4.401   6.831   3.052  0.3429 -0.2996 -0.4040
  269DOPC   H4X37080   4.291   6.847   3.051  0.4931  0.7696 -0.4625
  269DOPC   H4Y37081   4.451   6.929   3.066  2.0468 -0.6432 -3.1944
  269DOPC   C3537082   4.437   6.735   3.161 -0.6472  0.1047 -0.3362
  269DOPC   H5X37083   4.535   6.687   3.140  0.1935  1.7400 -0.3807
  269DOPC   H5Y37084   4.355   6.661   3.162  0.1247 -0.8003  1.8345
  269DOPC   C3637085   4.427   6.795   3.305 -0.2521  0.8166  0.4318
  269DOPC   H6X37086   4.498   6.881   3.309 -0.5784  1.1840 -1.1116
  269DOPC   H6Y37087   4.321   6.821   3.324 -0.8487  0.4124 -1.9718
  269DOPC   C3737088   4.478   6.679   3.397 -0.0297 -0.2431  0.0097
  269DOPC   H7X37089   4.414   6.589   3.383 -0.3337  0.1338 -1.0768
  269DOPC   H7Y37090   4.583   6.661   3.366  0.0305  1.4265 -0.8588
  269DOPC   C3837091   4.477   6.720   3.544 -0.4482  0.4507 -0.2530
  269DOPC   H8X37092   4.514   6.638   3.610 -0.7475  2.4180  2.5330
  269DOPC   H8Y37093   4.369   6.734   3.567 -0.5257  0.1688 -0.4320
  269DOPC   C3937094   4.550   6.841   3.587  0.2001  0.5450 -0.8826
  269DOPC   H9X37095   4.572   6.917   3.511  0.5745  0.7400 -0.5810
  269DOPC  C31037096   4.572   6.863   3.722 -0.0832 -0.1911  0.4915
  269DOPC  H10X37097   4.630   6.951   3.755 -0.1119  0.3892 -0.9492
  269DOPC  C31137098   4.524   6.774   3.832 -0.6295  0.4604 -0.0794
  269DOPC  H11X37099   4.524   6.665   3.813  1.1862 -0.0421  2.3298
  269DOPC  H11Y37100   4.420   6.802   3.857 -0.2904  2.3046 -0.5394
  269DOPC  C31237101   4.602   6.800   3.963  0.2897 -0.5852  0.3763
  269DOPC  H12X37102   4.568   6.756   4.059 -0.8571  1.7725  1.1115
  269DOPC  H12Y37103   4.596   6.909   3.982 -0.5624 -0.5636  0.0191
  269DOPC  C31337104   4.745   6.752   3.961  0.5473  0.0717  0.2907
  269DOPC  H13X37105   4.745   6.643   3.981 -2.0345 -0.0964 -0.2888
  269DOPC  H13Y37106   4.792   6.773   3.863  1.1422 -0.9348  0.3435
  269DOPC  C31437107   4.834   6.826   4.069  0.9839 -0.3073  0.5796
  269DOPC  H14X37108   4.935   6.831   4.024  1.2377 -1.9139  0.8969
  269DOPC  H14Y37109   4.794   6.928   4.084 -0.3020 -0.6883 -0.1019
  269DOPC  C31537110   4.842   6.745   4.199 -0.3033  0.0485  0.4378
  269DOPC  H15X37111   4.874   6.642   4.173 -1.5353  0.4558 -3.2198
  269DOPC  H15Y37112   4.737   6.742   4.233 -1.2199  1.5189 -1.9695
  269DOPC  C31637113   4.931   6.802   4.316 -0.4521  0.2312 -0.0385
  269DOPC  H16X37114   5.037   6.808   4.283  0.1142  1.3884  1.8543
  269DOPC  H16Y37115   4.902   6.908   4.332 -1.2262  0.3105 -1.6794
  269DOPC  C31737116   4.919   6.721   4.451 -0.4631 -0.1984  1.2122
  269DOPC  H17X37117   4.950   6.789   4.533 -1.6513  2.0920 -0.1499
  269DOPC  H17Y37118   4.812   6.695   4.466 -1.1534  2.1018  0.7145
  269DOPC  C31837119   5.013   6.603   4.452  0.1697  0.4795 -1.0150
  269DOPC  H18X37120   5.113   6.638   4.421  0.7495 -0.6915 -0.5277
  269DOPC  H18Y37121   5.017   6.549   4.550 -1.6782 -0.2264 -1.2690
  269DOPC  H18Z37122   4.981   6.519   4.387  1.0144 -0.1495 -0.6472
  270DOPC     N37123   7.158   8.300   2.077 -0.0213  0.6001  0.2710
  270DOPC   C1237124   7.110   8.446   2.073  0.4869 -0.0903 -0.4447
  270DOPC  H12A37125   7.049   8.469   1.987 -1.6219 -0.1047  0.9536
  270DOPC  H12B37126   7.196   8.509   2.058  0.0166  0.4363 -1.0052
  270DOPC   C1337127   7.044   8.214   2.076 -0.8771  0.1202 -0.7277
  270DOPC  H13A37128   6.999   8.224   1.979  1.2180 -1.5387 -1.9359
  270DOPC  H13B37129   7.060   8.108   2.088 -0.1617  0.0771 -1.9963
  270DOPC  H13C37130   6.960   8.254   2.133 -1.6658  0.6872 -2.2319
  270DOPC   C1437131   7.255   8.276   2.191  0.1072  0.0698  0.0787
  270DOPC  H14A37132   7.278   8.171   2.200  0.4606  0.2839  2.5533
  270DOPC  H14B37133   7.346   8.332   2.175  0.1292 -0.2219 -0.8866
  270DOPC  H14C37134   7.213   8.302   2.287  0.2339 -0.4952  0.2928
  270DOPC   C1537135   7.238   8.270   1.948  0.1170  0.1853 -0.4607
  270DOPC  H15A37136   7.279   8.171   1.942  2.8331  1.1488  0.8109
  270DOPC  H15B37137   7.320   8.340   1.946  0.4295 -0.0870  1.2768
  270DOPC  H15C37138   7.171   8.283   1.864 -0.6576 -1.7384 -0.1923
  270DOPC   C1137139   7.012   8.495   2.183  0.0305  0.1493 -0.1994
  270DOPC  H11A37140   7.066   8.475   2.278  0.4404  0.8759 -0.2702
  270DOPC  H11B37141   7.008   8.606   2.190  1.2390  0.1186  2.4040
  270DOPC     P37142   6.758   8.503   2.122 -0.0439  0.0043  0.2208
  270DOPC   O1337143   6.656   8.404   2.101  0.6275 -0.2115 -0.8090
  270DOPC   O1437144   6.800   8.573   2.000 -0.3366 -0.1355 -0.5407
  270DOPC   O1237145   6.883   8.433   2.181 -0.2087  0.4984  0.1929
  270DOPC   O1137146   6.727   8.604   2.239 -0.4434 -0.3127 -0.2097
  270DOPC    C137147   6.654   8.554   2.356 -0.4053 -1.1325  0.3717
  270DOPC    HA37148   6.606   8.454   2.343  0.5971 -1.5202 -0.6373
  270DOPC    HB37149   6.579   8.633   2.373  0.2075  0.2141 -2.5859
  270DOPC    C237150   6.745   8.540   2.484 -0.2307 -0.4038  0.1241
  270DOPC    HS37151   6.825   8.470   2.452 -2.6195 -2.8894 -0.7962
  270DOPC   O2137152   6.660   8.485   2.590  0.3660  0.7892 -0.3150
  270DOPC   C2137153   6.712   8.374   2.646  0.8447  0.2006 -0.4454
  270DOPC   O2237154   6.795   8.304   2.598 -0.3146  0.0328 -0.1249
  270DOPC   C2237155   6.647   8.353   2.781 -1.0341 -0.6192  0.0541
  270DOPC   H2R37156   6.537   8.351   2.768 -1.0786  1.4081 -0.2274
  270DOPC   H2S37157   6.663   8.448   2.836 -1.8118 -0.1931 -0.4371
  270DOPC    C337158   6.809   8.673   2.529 -0.1339  0.2074  0.7775
  270DOPC    HX37159   6.727   8.721   2.586  0.6842  1.2981  1.0692
  270DOPC    HY37160   6.831   8.730   2.437 -1.7634 -0.5709 -0.1350
  270DOPC   O3137161   6.916   8.639   2.616 -0.3254 -0.2774  0.1066
  270DOPC   C3137162   7.038   8.647   2.562  0.7480 -1.1812 -0.2544
  270DOPC   O3237163   7.062   8.697   2.452  0.5507  0.0318 -0.4912
  270DOPC   C3237164   7.138   8.590   2.658  0.0310 -0.5846  0.1836
  270DOPC   H2X37165   7.144   8.480   2.643 -0.1299 -0.3571 -1.7735
  270DOPC   H2Y37166   7.229   8.619   2.601 -2.7005  2.8747 -2.9838
  270DOPC   C2337167   6.701   8.238   2.862  0.4316  0.0098  0.5354
  270DOPC   H3R37168   6.807   8.258   2.886  0.4004 -1.2832  1.8774
  270DOPC   H3S37169   6.688   8.144   2.805 -1.4966  1.2560 -1.2429
  270DOPC   C2437170   6.623   8.218   2.989  0.0266 -0.0485 -0.1404
  270DOPC   H4R37171   6.520   8.180   2.970 -0.9790  0.2533  3.8004
  270DOPC   H4S37172   6.605   8.317   3.035 -0.9760 -0.3724  0.1915
  270DOPC   C2537173   6.690   8.117   3.083  0.0650 -0.2046  0.4025
  270DOPC   H5R37174   6.758   8.162   3.158  0.4513 -0.8351  0.4375
  270DOPC   H5S37175   6.754   8.061   3.012 -0.0772  2.2908 -1.8875
  270DOPC   C2637176   6.588   8.044   3.166  0.5152 -0.2564  0.5249
  270DOPC   H6R37177   6.522   7.992   3.093 -0.4857 -1.4150  2.1784
  270DOPC   H6S37178   6.529   8.117   3.225  1.3120  1.9847 -1.3234
  270DOPC   C2737179   6.649   7.943   3.261  0.5699  0.6659  0.2835
  270DOPC   H7R37180   6.720   7.991   3.332 -0.0763  1.1257  0.6271
  270DOPC   H7S37181   6.709   7.872   3.199  0.6449  1.3187 -0.4104
  270DOPC   C2837182   6.547   7.865   3.344 -0.2536  0.1491 -0.5378
  270DOPC   H8R37183   6.611   7.788   3.393  0.5987  0.4313 -1.1879
  270DOPC   H8S37184   6.469   7.813   3.284  0.2130 -0.9711 -0.1954
  270DOPC   C2937185   6.484   7.956   3.447 -0.3956 -0.6418 -0.0048
  270DOPC   H9R37186   6.429   8.041   3.403 -1.0557 -1.7392 -1.3385
  270DOPC  C21037187   6.511   7.953   3.580 -0.7130 -0.1873 -0.5476
  270DOPC  H10R37188   6.457   8.029   3.638 -1.0323 -0.8075 -0.0225
  270DOPC  C21137189   6.602   7.856   3.654  0.3256 -1.0406  0.1300
  270DOPC  H11R37190   6.689   7.906   3.702  0.3422 -0.1284 -0.7993
  270DOPC  H11S37191   6.635   7.771   3.590 -1.4722 -1.7907  0.1423
  270DOPC  C21237192   6.520   7.785   3.766  0.5963 -0.0860  0.2434
  270DOPC  H12R37193   6.577   7.711   3.827 -1.4572 -0.8100  1.3767
  270DOPC  H12S37194   6.433   7.727   3.729  0.1134  0.6925  0.1378
  270DOPC  C21337195   6.467   7.885   3.876 -0.6851  0.2739 -0.3728
  270DOPC  H13R37196   6.374   7.934   3.839 -0.1563  0.8835 -0.9274
  270DOPC  H13S37197   6.539   7.968   3.891 -0.6708 -0.1273  2.0694
  270DOPC  C21437198   6.448   7.814   4.010  0.6474  0.1215  0.1262
  270DOPC  H14R37199   6.415   7.708   3.998 -3.4473  1.2836 -0.4309
  270DOPC  H14S37200   6.358   7.864   4.052 -0.2038 -1.8665  0.7836
  270DOPC  C21537201   6.570   7.825   4.099  0.0855 -0.2767  0.1968
  270DOPC  H15R37202   6.547   7.762   4.188  0.6055  0.0515  0.5677
  270DOPC  H15S37203   6.576   7.931   4.129  0.5160 -0.3558  0.4026
  270DOPC  C21637204   6.714   7.782   4.049 -0.6925  0.2169  0.1733
  270DOPC  H16R37205   6.737   7.836   3.955  0.2996  1.6412  1.1767
  270DOPC  H16S37206   6.710   7.674   4.023  1.1139  0.3270 -0.7230
  270DOPC  C21737207   6.817   7.807   4.159  0.3523  0.6424  0.1659
  270DOPC  H17R37208   6.786   7.762   4.255  0.2001 -2.8969 -1.3731
  270DOPC  H17S37209   6.843   7.913   4.176 -0.4830  0.6699  1.3408
  270DOPC  C21837210   6.949   7.743   4.118 -0.1200 -0.6325 -0.4856
  270DOPC  H18R37211   6.997   7.804   4.038  1.7443  0.2075  1.1885
  270DOPC  H18S37212   6.929   7.638   4.087  2.0165 -1.3651  0.3879
  270DOPC  H18T37213   7.018   7.743   4.205 -1.9095  0.8632  1.0212
  270DOPC   C3337214   7.135   8.641   2.800 -0.6499  0.2241 -0.0786
  270DOPC   H3X37215   7.108   8.748   2.807  0.6238  0.5376  0.4089
  270DOPC   H3Y37216   7.240   8.622   2.832 -0.4193 -0.7418 -1.3499
  270DOPC   C3437217   7.041   8.560   2.890  0.6793  0.7037 -0.4473
  270DOPC   H4X37218   7.101   8.478   2.934  0.6845  1.8952  1.8854
  270DOPC   H4Y37219   6.955   8.518   2.833 -1.1379  2.6435  0.7103
  270DOPC   C3537220   6.975   8.635   3.010 -0.0622  1.0078 -0.4705
  270DOPC   H5X37221   6.903   8.705   2.963 -1.6212  0.5978  1.1881
  270DOPC   H5Y37222   7.063   8.686   3.054 -0.6468  3.0802 -1.5682
  270DOPC   C3637223   6.919   8.542   3.126 -0.1115  0.5629  0.3361
  270DOPC   H6X37224   6.817   8.514   3.093 -0.8690  1.2445  1.9637
  270DOPC   H6Y37225   6.978   8.448   3.121  0.2292  0.8324 -1.5367
  270DOPC   C3737226   6.915   8.617   3.263  0.6737 -0.1394  0.3879
  270DOPC   H7X37227   7.009   8.674   3.280  0.4340 -0.2252  2.2285
  270DOPC   H7Y37228   6.832   8.688   3.244  0.4073 -0.6890 -0.5254
  270DOPC   C3837229   6.882   8.525   3.378 -0.0654  0.1216 -0.9519
  270DOPC   H8X37230   6.872   8.582   3.473 -1.3247 -1.6115  0.0316
  270DOPC   H8Y37231   6.967   8.455   3.395 -0.7174 -0.2554  1.0692
  270DOPC   C3937232   6.768   8.428   3.368 -0.0459 -0.3687 -0.3106
  270DOPC   H9X37233   6.798   8.346   3.302  2.5745  0.0443  0.2476
  270DOPC  C31037234   6.650   8.434   3.426  0.7962 -0.2071 -0.3283
  270DOPC  H10X37235   6.579   8.352   3.407  0.4841 -1.0206  3.5977
  270DOPC  C31137236   6.601   8.537   3.525  0.2374 -1.0081  0.5474
  270DOPC  H11X37237   6.491   8.536   3.509  0.3480  1.0001 -0.7502
  270DOPC  H11Y37238   6.644   8.630   3.482 -1.8209 -1.3259 -2.5960
  270DOPC  C31237239   6.613   8.513   3.678  0.1879 -0.4547  0.4779
  270DOPC  H12X37240   6.582   8.608   3.726  0.5620 -0.0697 -0.0365
  270DOPC  H12Y37241   6.721   8.494   3.691  0.3240 -1.2989 -1.6164
  270DOPC  C31337242   6.525   8.412   3.747  0.5382 -0.0647 -0.0533
  270DOPC  H13X37243   6.563   8.310   3.723  1.3758 -0.1513  1.5063
  270DOPC  H13Y37244   6.533   8.417   3.857  5.3105  1.1865 -0.2205
  270DOPC  C31437245   6.375   8.419   3.713  0.6288 -0.5625  0.7154
  270DOPC  H14X37246   6.341   8.525   3.709  0.0205 -0.7845 -1.5229
  270DOPC  H14Y37247   6.354   8.377   3.612 -1.5878  0.4280  0.7110
  270DOPC  C31537248   6.280   8.347   3.807  0.2190 -0.0478  0.4210
  270DOPC  H15X37249   6.191   8.411   3.828 -0.4450 -0.0732 -1.9873
  270DOPC  H15Y37250   6.328   8.340   3.907  0.8482  0.9074  0.1957
  270DOPC  C31637251   6.220   8.207   3.762 -0.9062  0.4685 -0.9015
  270DOPC  H16X37252   6.175   8.219   3.661  2.0439 -0.2365 -2.4183
  270DOPC  H16Y37253   6.293   8.124   3.749  0.8500  1.6659  0.8028
  270DOPC  C31737254   6.115   8.159   3.866  0.9997 -0.4218 -0.4549
  270DOPC  H17X37255   6.039   8.240   3.868  0.0271 -1.2531 -1.8935
  270DOPC  H17Y37256   6.062   8.072   3.822 -2.1838  1.5290 -0.8076
  270DOPC  C31837257   6.161   8.137   4.019  0.7805  0.5783  0.7653
  270DOPC  H18X37258   6.200   8.235   4.053  1.6573  0.7817 -0.7241
  270DOPC  H18Y37259   6.088   8.098   4.093  0.3190  1.1902  0.6454
  270DOPC  H18Z37260   6.252   8.073   4.016  0.0528 -0.4701 -1.4242
  271DOPC     N37261   1.580   9.892   2.333 -0.1826 -0.1855 -0.6525
  271DOPC   C1237262   1.463   9.852   2.433 -0.8694  0.4364  0.5630
  271DOPC  H12A37263   1.495   9.751   2.456  1.1457  0.7140 -0.8381
  271DOPC  H12B37264   1.375   9.838   2.372 -0.6140  1.2007  0.0092
  271DOPC   C1337265   1.711   9.863   2.384 -0.6513 -0.1498 -0.3509
  271DOPC  H13A37266   1.712   9.768   2.435  1.3937  1.6595  3.3352
  271DOPC  H13B37267   1.790   9.873   2.311 -1.5580  0.1672 -1.3116
  271DOPC  H13C37268   1.738   9.937   2.457  0.1742 -1.5101  0.7855
  271DOPC   C1437269   1.574  10.035   2.300  0.0148  0.1334 -0.6565
  271DOPC  H14A37270   1.554  10.091   2.391 -0.9174 -1.1717 -0.0295
  271DOPC  H14B37271   1.667  10.067   2.256  0.9861 -1.1790  0.3427
  271DOPC  H14C37272   1.492  10.066   2.237 -0.3319  1.4920  0.4043
  271DOPC   C1537273   1.560   9.807   2.216  0.0974  0.2191  0.0866
  271DOPC  H15A37274   1.639   9.824   2.144  0.0748  1.6725  0.3618
  271DOPC  H15B37275   1.471   9.828   2.158  1.1820  1.6814 -1.1491
  271DOPC  H15C37276   1.564   9.705   2.250 -0.7655  0.2872  0.4077
  271DOPC   C1137277   1.439   9.929   2.557 -0.1561  0.3420  0.4652
  271DOPC  H11A37278   1.387   9.869   2.634 -1.5198  0.3873 -0.3866
  271DOPC  H11B37279   1.541   9.948   2.597  1.6379 -0.5954 -3.2545
  271DOPC     P37280   1.218  10.051   2.483  0.2311 -0.1085  0.0258
  271DOPC   O1337281   1.196   9.941   2.388  0.4436  0.2280 -0.6770
  271DOPC   O1437282   1.177  10.188   2.435 -0.0001  0.5833  0.0832
  271DOPC   O1237283   1.369  10.047   2.530  0.5037  1.0233 -0.3798
  271DOPC   O1137284   1.143  10.030   2.616  0.2466 -0.0028  0.3862
  271DOPC    C137285   1.173  10.112   2.725 -0.1375  0.0253 -0.8399
  271DOPC    HA37286   1.087  10.181   2.739  0.0043 -0.2273  1.6284
  271DOPC    HB37287   1.256  10.185   2.713  0.8330 -0.5958  1.4630
  271DOPC    C237288   1.184  10.034   2.855  0.9110  0.0266 -0.6015
  271DOPC    HS37289   1.188  10.112   2.934  0.6051  0.4254 -0.9794
  271DOPC   O2137290   1.294   9.950   2.858  0.0351  0.3432 -0.6599
  271DOPC   C2137291   1.413  10.013   2.869  0.0230  0.0122  0.1672
  271DOPC   O2237292   1.428  10.132   2.867 -0.2636 -0.2253  0.6625
  271DOPC   C2237293   1.519   9.920   2.930 -0.2433 -0.3038  0.6212
  271DOPC   H2R37294   1.612   9.980   2.931 -0.0594 -0.5833  1.0758
  271DOPC   H2S37295   1.526   9.831   2.864 -1.5663  2.5828 -3.7711
  271DOPC    C337296   1.055   9.947   2.889 -0.6072 -0.9732  0.2402
  271DOPC    HX37297   1.050   9.862   2.818  1.7333 -2.3677  1.6133
  271DOPC    HY37298   0.970  10.018   2.881  0.7897  1.1441  2.5870
  271DOPC   O3137299   1.051   9.894   3.025  0.3676 -0.4531 -0.4161
  271DOPC   C3137300   1.030   9.984   3.116  0.3248  0.0289 -0.2744
  271DOPC   O3237301   1.021  10.103   3.100  0.8107 -0.4565 -0.2434
  271DOPC   C3237302   1.008   9.914   3.245  0.0329  0.8120 -0.9317
  271DOPC   H2X37303   1.014   9.804   3.230  0.7414  0.3431  2.0770
  271DOPC   H2Y37304   1.094   9.938   3.311 -0.5812 -0.8202  0.5402
  271DOPC   C2337305   1.478   9.883   3.079  0.2239 -0.2446 -0.2088
  271DOPC   H3R37306   1.386   9.822   3.083  1.3057 -1.9444  0.1716
  271DOPC   H3S37307   1.461   9.973   3.142  0.0497  0.1965 -0.8709
  271DOPC   C2437308   1.574   9.778   3.129  0.7131  0.0878 -0.8176
  271DOPC   H4R37309   1.679   9.809   3.149  0.5958 -0.1953  0.2624
  271DOPC   H4S37310   1.577   9.698   3.051 -1.1941  1.2096 -2.1270
  271DOPC   C2537311   1.521   9.702   3.253 -0.0188  0.2670  0.0305
  271DOPC   H5R37312   1.582   9.615   3.284  0.7786  1.6067  2.5207
  271DOPC   H5S37313   1.422   9.668   3.218 -0.4353  0.3390  1.0979
  271DOPC   C2637314   1.476   9.790   3.381 -0.4339 -0.3511 -0.1897
  271DOPC   H6R37315   1.406   9.871   3.352 -0.8743 -0.5214  0.3739
  271DOPC   H6S37316   1.562   9.849   3.418 -1.1192  0.9368 -0.6106
  271DOPC   C2737317   1.430   9.713   3.500  0.6499  0.2556  0.3225
  271DOPC   H7R37318   1.506   9.648   3.547  1.8962  0.9021 -0.7538
  271DOPC   H7S37319   1.344   9.650   3.468  0.7145  0.4118 -0.1581
  271DOPC   C2837320   1.359   9.800   3.613 -0.4609  0.2007  0.7089
  271DOPC   H8R37321   1.304   9.738   3.687  2.4963 -0.3850  2.5533
  271DOPC   H8S37322   1.291   9.870   3.561 -0.1308 -0.1843 -0.2477
  271DOPC   C2937323   1.467   9.876   3.693  0.3852  0.3762  0.2698
  271DOPC   H9R37324   1.558   9.824   3.727  0.5667  0.4377 -0.1230
  271DOPC  C21037325   1.453  10.011   3.731 -0.6559  0.0288  0.2418
  271DOPC  H10R37326   1.531  10.067   3.786 -0.3763 -0.8270  0.7357
  271DOPC  C21137327   1.342  10.102   3.688 -0.5303 -0.1131  0.2367
  271DOPC  H11R37328   1.270  10.053   3.619 -1.2030  2.2081 -0.8390
  271DOPC  H11S37329   1.390  10.193   3.645  1.2771 -0.2665  1.8157
  271DOPC  C21237330   1.264  10.141   3.810 -0.0238 -0.0962  0.1177
  271DOPC  H12R37331   1.241  10.064   3.887 -0.0149  0.6612  0.8967
  271DOPC  H12S37332   1.176  10.206   3.794  1.1930  1.0017 -2.6607
  271DOPC  C21337333   1.348  10.240   3.890  0.1655  0.3845  0.3325
  271DOPC  H13R37334   1.377  10.320   3.818  0.4470  0.1977  0.2361
  271DOPC  H13S37335   1.442  10.194   3.927  0.8113  1.4368  0.0609
  271DOPC  C21437336   1.264  10.307   4.000  0.0030  0.2854  0.5255
  271DOPC  H14R37337   1.219  10.231   4.066 -1.6065 -0.4325 -1.3251
  271DOPC  H14S37338   1.177  10.359   3.954 -1.2732  0.1295  2.6243
  271DOPC  C21537339   1.344  10.408   4.079 -0.3941  0.2916  0.1753
  271DOPC  H15R37340   1.269  10.449   4.150 -1.1195 -0.0661 -0.3635
  271DOPC  H15S37341   1.363  10.495   4.012  1.3850 -0.9088 -0.9683
  271DOPC  C21637342   1.467  10.351   4.154 -0.2164  0.0687 -0.8801
  271DOPC  H16R37343   1.546  10.322   4.081  1.0687  1.8392 -0.2450
  271DOPC  H16S37344   1.426  10.269   4.217 -0.7125  0.0558 -1.2127
  271DOPC  C21737345   1.529  10.446   4.260  0.8258 -0.4644  0.6953
  271DOPC  H17R37346   1.613  10.387   4.302  2.1400  0.1317 -0.9820
  271DOPC  H17S37347   1.457  10.469   4.342 -0.7140  1.2168 -1.0388
  271DOPC  C21837348   1.586  10.576   4.204  0.2803  0.8002 -0.2414
  271DOPC  H18R37349   1.516  10.634   4.140 -1.1203  1.8874  2.1467
  271DOPC  H18S37350   1.676  10.555   4.142 -0.6950  1.6949 -2.0299
  271DOPC  H18T37351   1.616  10.634   4.294 -0.7389 -0.2145  0.7691
  271DOPC   C3337352   0.883   9.952   3.327  0.1943  0.3174  0.0021
  271DOPC   H3X37353   0.800   9.966   3.255  0.8448  0.1724 -0.7846
  271DOPC   H3Y37354   0.891  10.047   3.385 -1.9334  1.0121 -0.7467
  271DOPC   C3437355   0.854   9.854   3.442  0.2424 -0.1144 -0.6023
  271DOPC   H4X37356   0.939   9.847   3.514 -0.8516 -1.7654  0.6000
  271DOPC   H4Y37357   0.856   9.749   3.404 -1.0929  0.1582 -1.4463
  271DOPC   C3537358   0.723   9.874   3.511 -0.5882  0.5420 -0.4086
  271DOPC   H5X37359   0.647   9.870   3.431  0.6518 -1.7384 -1.5324
  271DOPC   H5Y37360   0.713   9.975   3.559 -0.4922 -0.0399  0.8906
  271DOPC   C3637361   0.699   9.760   3.623  0.9311 -0.2036 -0.8561
  271DOPC   H6X37362   0.658   9.669   3.575 -1.6492 -0.5497  1.7033
  271DOPC   H6Y37363   0.790   9.734   3.680 -0.5600 -1.8341  0.8701
  271DOPC   C3737364   0.589   9.801   3.731 -0.1601 -0.8092 -0.0111
  271DOPC   H7X37365   0.589   9.708   3.792  0.2659 -0.1978  0.9328
  271DOPC   H7Y37366   0.622   9.890   3.788  0.8579  1.0293 -3.2456
  271DOPC   C3837367   0.449   9.813   3.672  0.1555 -0.5527 -0.3060
  271DOPC   H8X37368   0.387   9.793   3.761  2.3980  1.8294  1.9790
  271DOPC   H8Y37369   0.413   9.734   3.602 -0.5738 -1.0168  0.5630
  271DOPC   C3937370   0.416   9.940   3.610 -0.1164  0.1427 -0.7165
  271DOPC   H9X37371   0.445   9.950   3.504 -0.9193  0.5331 -0.9045
  271DOPC  C31037372   0.344  10.037   3.665  0.0000 -0.4139 -0.6264
  271DOPC  H10X37373   0.339  10.135   3.615 -0.8641  0.0028  0.2462
  271DOPC  C31137374   0.292  10.038   3.804  0.3013 -0.0601 -0.6465
  271DOPC  H11X37375   0.351   9.969   3.869  1.4018  2.1192  0.8001
  271DOPC  H11Y37376   0.184  10.012   3.808  0.0316  0.9217 -1.2432
  271DOPC  C31237377   0.316  10.182   3.855  0.6373 -0.3188  0.4084
  271DOPC  H12X37378   0.403  10.242   3.821  0.8074  0.5562  2.2622
  271DOPC  H12Y37379   0.320  10.186   3.966  1.3991  3.6313  0.4021
  271DOPC  C31337380   0.191  10.277   3.833 -0.3888 -0.4110 -0.1741
  271DOPC  H13X37381   0.182  10.290   3.723  1.1140  2.5531 -0.0202
  271DOPC  H13Y37382   0.097  10.236   3.877  0.0014 -0.2294  0.8631
  271DOPC  C31437383   0.198  10.423   3.886  0.0226  0.4871 -0.0588
  271DOPC  H14X37384   0.226  10.409   3.993 -0.0099 -0.7474 -0.1978
  271DOPC  H14Y37385   0.282  10.475   3.835  0.2002  1.1388  0.8695
  271DOPC  C31537386   0.070  10.507   3.857 -0.2920  0.1446 -0.7236
  271DOPC  H15X37387  -0.016  10.471   3.917 -1.0248 -0.3718 -2.0485
  271DOPC  H15Y37388   0.030  10.502   3.754 -0.0391  2.4888 -0.9938
  271DOPC  C31637389   0.084  10.651   3.903 -0.3564  0.0490  0.2122
  271DOPC  H16X37390   0.188  10.689   3.893 -0.2102  0.0087  1.4219
  271DOPC  H16Y37391   0.020  10.714   3.839  0.1437 -0.1507 -0.4960
  271DOPC  C31737392   0.036  10.675   4.049  0.2679  0.1167  0.0641
  271DOPC  H17X37393  -0.074  10.659   4.055 -0.0156  1.4549 -1.1475
  271DOPC  H17Y37394   0.082  10.588   4.102  1.8895 -0.5572 -2.2986
  271DOPC  C31837395   0.077  10.803   4.116 -0.5428 -0.0500  0.2291
  271DOPC  H18X37396   0.051  10.888   4.049 -1.0615  0.9080  1.5991
  271DOPC  H18Y37397   0.020  10.816   4.210 -1.1966 -0.8502 -0.0395
  271DOPC  H18Z37398   0.187  10.809   4.129 -0.3101 -0.0682 -1.4978
  272DOPC     N37399   2.029   5.076   1.275  0.0228  0.4971 -0.4259
  272DOPC   C1237400   2.051   4.989   1.400 -0.3744  0.2251  0.5016
  272DOPC  H12A37401   2.120   5.035   1.470  1.5596 -0.2760 -0.9677
  272DOPC  H12B37402   2.119   4.908   1.376 -0.0893  0.4676  0.4771
  272DOPC   C1337403   1.955   5.204   1.317  0.1005  0.1950  0.1901
  272DOPC  H13A37404   1.862   5.165   1.358  0.9895 -1.5181  0.6586
  272DOPC  H13B37405   2.007   5.254   1.397  1.7745 -1.1832  0.0340
  272DOPC  H13C37406   1.925   5.261   1.231  0.0922 -0.2189 -0.0849
  272DOPC   C1437407   1.947   5.005   1.179  0.4195  0.0230  0.7520
  272DOPC  H14A37408   1.840   5.006   1.192  0.4570 -0.1864  1.0872
  272DOPC  H14B37409   1.968   5.042   1.079 -2.3878 -0.3858 -0.0859
  272DOPC  H14C37410   1.977   4.901   1.177 -0.0335 -0.1101 -0.9432
  272DOPC   C1537411   2.161   5.103   1.203 -0.1039 -0.1440 -0.7359
  272DOPC  H15A37412   2.230   5.147   1.274 -2.6177  2.0150  0.5437
  272DOPC  H15B37413   2.149   5.179   1.127 -0.3870  1.0813  0.4748
  272DOPC  H15C37414   2.220   5.021   1.167  1.0287  0.7591 -0.9764
  272DOPC   C1137415   1.936   4.931   1.482  0.0694 -0.4935  0.2217
  272DOPC  H11A37416   1.977   4.898   1.580  0.9577  1.4715  0.5434
  272DOPC  H11B37417   1.883   5.024   1.510  0.5623  0.6392 -2.3004
  272DOPC     P37418   1.888   4.681   1.410  0.0363  0.2670 -0.6157
  272DOPC   O1337419   2.031   4.650   1.401  0.2473  0.1744 -0.2011
  272DOPC   O1437420   1.800   4.613   1.311  0.5994  0.2250  0.1953
  272DOPC   O1237421   1.861   4.841   1.401  0.5820  0.1075  0.3390
  272DOPC   O1137422   1.849   4.648   1.558 -0.2190 -0.8233 -0.7507
  272DOPC    C137423   1.713   4.615   1.596 -0.1177 -0.1258 -1.0070
  272DOPC    HA37424   1.675   4.528   1.537  0.2752 -1.4006  0.5373
  272DOPC    HB37425   1.647   4.702   1.577 -0.9676 -0.8316 -1.3973
  272DOPC    C237426   1.708   4.572   1.749  0.5678 -0.2445  1.1375
  272DOPC    HS37427   1.604   4.579   1.788 -0.1661 -0.4636 -0.6843
  272DOPC   O2137428   1.799   4.663   1.821 -0.0510  0.1350  0.1985
  272DOPC   C2137429   1.761   4.782   1.844  0.2970  0.1129  0.3576
  272DOPC   O2237430   1.651   4.827   1.814  0.6142 -0.5188 -0.3970
  272DOPC   C2237431   1.870   4.860   1.907 -0.4848  0.3848  0.5112
  272DOPC   H2R37432   1.831   4.953   1.953  0.1651  0.8318  0.1792
  272DOPC   H2S37433   1.932   4.901   1.824 -1.0436  1.2896  0.5317
  272DOPC    C337434   1.767   4.436   1.768  0.5911  0.4787 -0.5173
  272DOPC    HX37435   1.877   4.440   1.752  0.4149 -0.4312 -2.0672
  272DOPC    HY37436   1.718   4.365   1.699 -2.2894  3.5511 -1.8997
  272DOPC   O3137437   1.737   4.406   1.911 -0.4163  0.1970 -0.5666
  272DOPC   C3137438   1.794   4.290   1.945  0.3448  0.5726 -0.0573
  272DOPC   O3237439   1.871   4.224   1.874  0.2840 -0.2190 -0.3612
  272DOPC   C3237440   1.739   4.251   2.078 -0.0579  0.0265  0.3100
  272DOPC   H2X37441   1.706   4.340   2.134  1.0405  0.9142 -0.4074
  272DOPC   H2Y37442   1.655   4.180   2.061 -0.0758  0.4737 -1.7241
  272DOPC   C2337443   1.936   4.779   2.012  0.5043 -0.1091 -0.4120
  272DOPC   H3R37444   2.040   4.816   2.026  1.1383 -1.8386 -0.2623
  272DOPC   H3S37445   1.945   4.672   1.982 -1.6437 -0.7045  0.8238
  272DOPC   C2437446   1.862   4.779   2.145 -0.3389  0.0361 -0.8981
  272DOPC   H4R37447   1.766   4.723   2.140 -0.5281  0.0403  1.4860
  272DOPC   H4S37448   1.843   4.884   2.177 -3.3937 -0.9186  0.8484
  272DOPC   C2537449   1.941   4.715   2.259  0.1704  0.0007 -0.3316
  272DOPC   H5R37450   1.898   4.738   2.359  1.7921 -0.9474  0.6323
  272DOPC   H5S37451   2.044   4.757   2.258 -0.3486  1.6533  2.8308
  272DOPC   C2637452   1.952   4.560   2.245  0.0693 -0.0785 -0.0959
  272DOPC   H6R37453   1.984   4.545   2.140  1.4840  0.4914  0.2324
  272DOPC   H6S37454   1.853   4.511   2.257 -0.5620  1.2279  0.1962
  272DOPC   C2737455   2.052   4.491   2.330  0.0284 -0.6234 -0.3000
  272DOPC   H7R37456   2.149   4.525   2.290  0.4962 -3.1137 -1.4861
  272DOPC   H7S37457   2.053   4.382   2.309 -2.4409 -0.9154  0.6893
  272DOPC   C2837458   2.032   4.528   2.475  0.1120  0.1767 -0.2236
  272DOPC   H8R37459   2.047   4.637   2.492  0.1158 -0.1943  2.7405
  272DOPC   H8S37460   2.114   4.483   2.535  1.3816  0.3491 -1.7494
  272DOPC   C2937461   1.909   4.486   2.533  0.5647  0.7248  0.4322
  272DOPC   H9R37462   1.863   4.404   2.476 -0.2783  1.9446 -0.7396
  272DOPC  C21037463   1.843   4.542   2.634  0.2462 -0.4319  0.0870
  272DOPC  H10R37464   1.753   4.494   2.675  1.2327 -0.2569  2.6823
  272DOPC  C21137465   1.881   4.658   2.721 -0.5014 -0.5928  0.3213
  272DOPC  H11R37466   1.815   4.740   2.684 -1.0162 -1.3262 -0.3986
  272DOPC  H11S37467   1.990   4.679   2.729 -0.9554  1.9026  1.1434
  272DOPC  C21237468   1.841   4.635   2.868 -0.3406  0.3236 -1.1196
  272DOPC  H12R37469   1.736   4.600   2.882 -0.8972  2.7836  2.0851
  272DOPC  H12S37470   1.853   4.736   2.911  3.1146 -0.7289  0.7903
  272DOPC  C21337471   1.954   4.553   2.936  0.0476 -0.5365 -0.1203
  272DOPC  H13R37472   2.050   4.584   2.888 -0.2705  3.1346  1.2561
  272DOPC  H13S37473   1.941   4.443   2.929 -0.6072 -0.4499 -0.2945
  272DOPC  C21437474   1.968   4.575   3.082 -0.4221 -0.1092  0.1298
  272DOPC  H14R37475   1.961   4.683   3.110  1.4786 -0.5014  2.5221
  272DOPC  H14S37476   2.071   4.550   3.115 -0.1152  0.2080 -0.5603
  272DOPC  C21537477   1.862   4.494   3.163  0.4547  0.4312  0.1094
  272DOPC  H15R37478   1.852   4.400   3.104  4.7723  0.1263 -0.4224
  272DOPC  H15S37479   1.766   4.548   3.176 -0.0842 -0.9486  2.3228
  272DOPC  C21637480   1.902   4.452   3.305  0.5867  0.0351  0.9594
  272DOPC  H16R37481   1.944   4.538   3.362  0.9465  1.9879 -1.9728
  272DOPC  H16S37482   1.988   4.384   3.291 -0.4653 -1.1473  0.0180
  272DOPC  C21737483   1.797   4.366   3.375 -0.2265 -0.5389  0.6084
  272DOPC  H17R37484   1.765   4.281   3.311 -0.8915  1.3626 -1.7188
  272DOPC  H17S37485   1.711   4.435   3.390 -0.5464 -1.2233  2.1224
  272DOPC  C21837486   1.856   4.319   3.507  0.3569 -0.3782  0.3403
  272DOPC  H18R37487   1.887   4.405   3.570  0.1669  0.9033 -1.2485
  272DOPC  H18S37488   1.952   4.263   3.495  1.2798  1.3612 -0.8539
  272DOPC  H18T37489   1.786   4.252   3.560  0.3446 -1.9959 -1.5960
  272DOPC   C3337490   1.850   4.186   2.168 -0.1008  0.0310  0.1058
  272DOPC   H3X37491   1.933   4.253   2.197  1.0349 -1.5923  0.7487
  272DOPC   H3Y37492   1.898   4.103   2.112 -1.0387  0.8835 -2.0861
  272DOPC   C3437493   1.792   4.138   2.302  0.1776 -0.1099 -0.4221
  272DOPC   H4X37494   1.716   4.062   2.276  1.3333 -0.7431 -2.1122
  272DOPC   H4Y37495   1.746   4.228   2.348  1.6073  0.4115  0.0284
  272DOPC   C3537496   1.883   4.058   2.394 -0.0954 -0.2803  0.0497
  272DOPC   H5X37497   1.952   4.133   2.439 -1.1908 -0.1926  1.6468
  272DOPC   H5Y37498   1.950   3.989   2.338  2.4527 -0.4803  3.0781
  272DOPC   C3637499   1.817   4.000   2.523 -0.5477  0.0439 -0.3153
  272DOPC   H6X37500   1.739   3.931   2.483 -0.4033 -0.4118  0.1799
  272DOPC   H6Y37501   1.900   3.949   2.576  0.0639  0.2333 -1.0742
  272DOPC   C3737502   1.764   4.106   2.626 -0.0748  0.5713  0.9411
  272DOPC   H7X37503   1.845   4.180   2.644 -0.8573  2.1972 -1.5986
  272DOPC   H7Y37504   1.684   4.158   2.569  0.5601 -1.3841 -1.9569
  272DOPC   C3837505   1.711   4.048   2.764 -0.2672 -0.6717  0.1376
  272DOPC   H8X37506   1.706   4.127   2.842 -1.2375  0.7898 -1.3475
  272DOPC   H8Y37507   1.790   3.973   2.789  1.0522  0.3758 -0.6972
  272DOPC   C3937508   1.569   3.996   2.738  0.0838  0.2065 -0.5704
  272DOPC   H9X37509   1.491   4.045   2.677 -1.9525  0.1655  1.8312
  272DOPC  C31037510   1.533   3.871   2.780 -0.0717  0.6682 -0.3201
  272DOPC  H10X37511   1.428   3.841   2.765 -0.6223  1.5297  1.5551
  272DOPC  C31137512   1.623   3.769   2.855 -0.2367  0.6647  0.0160
  272DOPC  H11X37513   1.557   3.720   2.930  0.4228  0.8942  0.7501
  272DOPC  H11Y37514   1.710   3.822   2.897  0.1915 -1.7312  2.4142
  272DOPC  C31237515   1.669   3.670   2.752 -0.1290 -0.4895  0.6373
  272DOPC  H12X37516   1.698   3.730   2.663  2.9602  1.3516  2.6868
  272DOPC  H12Y37517   1.595   3.598   2.713  1.2275 -1.5672 -0.0406
  272DOPC  C31337518   1.794   3.596   2.801  0.2252 -0.1380  0.1553
  272DOPC  H13X37519   1.849   3.548   2.717  0.3077  1.0872 -0.5121
  272DOPC  H13Y37520   1.862   3.669   2.850 -0.1183  1.1700 -1.2709
  272DOPC  C31437521   1.754   3.493   2.910 -0.4053 -0.5257  0.6800
  272DOPC  H14X37522   1.709   3.559   2.986 -1.4549  0.2047 -0.5422
  272DOPC  H14Y37523   1.667   3.433   2.877 -1.4814  0.3542  1.8729
  272DOPC  C31537524   1.862   3.414   2.966  0.2311 -0.7445 -0.0335
  272DOPC  H15X37525   1.956   3.464   2.999  0.0788 -2.0092  2.4969
  272DOPC  H15Y37526   1.888   3.337   2.890 -0.4548 -1.8783  0.8574
  272DOPC  C31637527   1.798   3.339   3.088  0.1755  0.6383 -0.2521
  272DOPC  H16X37528   1.697   3.300   3.063  0.6688 -0.4160 -0.6467
  272DOPC  H16Y37529   1.866   3.253   3.103 -1.0578 -0.6623 -1.7796
  272DOPC  C31737530   1.792   3.415   3.222 -0.0236 -0.3320  0.3885
  272DOPC  H17X37531   1.888   3.471   3.226 -0.1546 -0.1219  0.5883
  272DOPC  H17Y37532   1.715   3.495   3.222  0.1216 -0.1772 -0.6936
  272DOPC  C31837533   1.781   3.338   3.350  0.2582 -0.3130 -0.2075
  272DOPC  H18X37534   1.686   3.280   3.343 -0.0003  0.3152 -2.5950
  272DOPC  H18Y37535   1.859   3.260   3.359  1.1810  0.6871  0.7320
  272DOPC  H18Z37536   1.779   3.404   3.440 -0.5338  1.2208 -1.2971
  273DOPC     N37537   9.345   3.140   1.672  0.1163 -0.0259  0.2723
  273DOPC   C1237538   9.305   3.238   1.782 -0.5921 -0.0056  0.0037
  273DOPC  H12A37539   9.198   3.234   1.801 -0.2449 -1.5377  2.0344
  273DOPC  H12B37540   9.322   3.341   1.755 -1.2009  0.0486 -0.1942
  273DOPC   C1337541   9.287   3.191   1.547  0.4658  0.1061 -0.1740
  273DOPC  H13A37542   9.326   3.282   1.504  0.1851  0.2016 -0.2336
  273DOPC  H13B37543   9.301   3.114   1.473  0.0674 -0.5910  0.4598
  273DOPC  H13C37544   9.180   3.206   1.553  0.4267 -0.5361  1.1497
  273DOPC   C1437545   9.285   3.005   1.706  0.0611 -0.5016 -0.4507
  273DOPC  H14A37546   9.339   2.953   1.784  0.5584 -1.8721 -1.6680
  273DOPC  H14B37547   9.180   3.019   1.729  0.2336  1.4826 -0.7278
  273DOPC  H14C37548   9.289   2.935   1.624  0.7130 -0.1125 -0.7538
  273DOPC   C1537549   9.494   3.115   1.660  0.6777 -0.6014  0.0605
  273DOPC  H15A37550   9.501   3.035   1.588 -1.0751 -1.4133  0.7323
  273DOPC  H15B37551   9.527   3.082   1.757 -1.6722 -2.4609  0.3271
  273DOPC  H15C37552   9.553   3.197   1.623  0.3397 -0.8372 -1.0327
  273DOPC   C1137553   9.386   3.223   1.914  1.1290 -0.4262 -0.2901
  273DOPC  H11A37554   9.494   3.238   1.891  0.6280  0.5494 -2.1293
  273DOPC  H11B37555   9.356   3.308   1.979  0.6959 -1.3235  0.7068
  273DOPC     P37556   9.464   3.022   2.075 -0.5138  0.0615 -0.0048
  273DOPC   O1337557   9.599   3.041   2.019 -0.1176 -0.1001  0.2039
  273DOPC   O1437558   9.414   2.888   2.107  0.3459 -0.2309 -0.1555
  273DOPC   O1237559   9.356   3.095   1.978 -0.6228 -0.2442 -0.0509
  273DOPC   O1137560   9.453   3.112   2.208 -0.0638 -0.2947 -0.3470
  273DOPC    C137561   9.322   3.111   2.272  0.1151  0.1431  0.4122
  273DOPC    HA37562   9.252   3.040   2.225 -2.0380  1.6394  1.1837
  273DOPC    HB37563   9.266   3.207   2.269  0.3168  0.2329 -1.1682
  273DOPC    C237564   9.337   3.064   2.424  0.8646 -0.1694  0.5410
  273DOPC    HS37565   9.235   3.042   2.463  0.0407 -0.0297 -1.4283
  273DOPC   O2137566   9.404   3.163   2.500  0.0418 -0.2876 -0.6483
  273DOPC   C2137567   9.317   3.264   2.531 -0.1464  0.6396 -0.2542
  273DOPC   O2237568   9.196   3.264   2.514 -0.8303  0.5811  0.1849
  273DOPC   C2237569   9.405   3.375   2.591 -0.3493  0.1495  0.5762
  273DOPC   H2R37570   9.333   3.448   2.633  0.4213  0.4716  1.3808
  273DOPC   H2S37571   9.459   3.430   2.512 -0.4621 -1.2937 -0.5535
  273DOPC    C337572   9.406   2.930   2.423 -0.0702  0.1970 -0.3911
  273DOPC    HX37573   9.515   2.942   2.404  0.7678 -0.2060  3.4144
  273DOPC    HY37574   9.351   2.862   2.355  0.1449 -1.0344  0.6355
  273DOPC   O3137575   9.387   2.882   2.557  0.2393 -0.2835 -0.0275
  273DOPC   C3137576   9.500   2.868   2.634 -0.1529 -0.9245  1.1877
  273DOPC   O3237577   9.614   2.867   2.584  0.5758  0.1522 -0.2004
  273DOPC   C3237578   9.463   2.842   2.776  0.1138  0.0522  0.0610
  273DOPC   H2X37579   9.424   2.938   2.817 -2.1151 -1.3920  1.5922
  273DOPC   H2Y37580   9.379   2.773   2.801 -0.3709  1.2650  1.9808
  273DOPC   C2337581   9.502   3.331   2.703 -0.5038 -0.3816 -0.0596
  273DOPC   H3R37582   9.564   3.416   2.738 -1.6319 -0.1160  1.3542
  273DOPC   H3S37583   9.575   3.258   2.662  1.4202  1.0104  0.7714
  273DOPC   C2437584   9.435   3.273   2.828 -0.6933 -0.4796  0.1703
  273DOPC   H4R37585   9.362   3.197   2.794 -0.0910  0.1866 -2.8885
  273DOPC   H4S37586   9.378   3.356   2.875  0.6888 -0.1550  1.3650
  273DOPC   C2537587   9.528   3.229   2.938 -0.4431  0.1658 -0.1044
  273DOPC   H5R37588   9.596   3.310   2.973 -1.7621  1.4022 -0.3249
  273DOPC   H5S37589   9.597   3.153   2.895  1.9616  3.6749 -3.0901
  273DOPC   C2637590   9.447   3.158   3.052 -0.2458  0.1261  0.2566
  273DOPC   H6R37591   9.516   3.120   3.131 -0.1845  1.6951  0.9871
  273DOPC   H6S37592   9.386   3.075   3.011 -1.5258  2.2984 -2.5392
  273DOPC   C2737593   9.346   3.240   3.132  0.5340 -0.3135  0.4864
  273DOPC   H7R37594   9.263   3.251   3.060 -0.1844 -0.2191  1.3119
  273DOPC   H7S37595   9.392   3.338   3.155 -1.7050  0.4472  1.9416
  273DOPC   C2837596   9.289   3.161   3.251  0.1518 -0.3813 -0.6955
  273DOPC   H8R37597   9.349   3.170   3.343 -2.1057  2.1527  0.6753
  273DOPC   H8S37598   9.289   3.053   3.223 -0.7238  0.1491 -2.9746
  273DOPC   C2937599   9.148   3.195   3.280 -0.4753 -0.1780  0.7582
  273DOPC   H9R37600   9.079   3.153   3.205 -1.5499 -0.5028  1.8827
  273DOPC  C21037601   9.087   3.256   3.384 -0.6250 -0.6489 -0.1300
  273DOPC  H10R37602   8.980   3.283   3.384 -1.2944 -3.0441 -0.7415
  273DOPC  C21137603   9.159   3.305   3.508  0.2965 -0.3909  0.0031
  273DOPC  H11R37604   9.107   3.396   3.543 -0.5302  0.0665 -2.2370
  273DOPC  H11S37605   9.262   3.343   3.488 -0.4874  0.1252 -3.7353
  273DOPC  C21237606   9.155   3.200   3.612 -0.1241  0.0536  0.1507
  273DOPC  H12R37607   9.228   3.117   3.599  1.6387  1.8698 -2.8067
  273DOPC  H12S37608   9.057   3.148   3.616 -0.6810  1.1305  1.3623
  273DOPC  C21337609   9.161   3.259   3.752 -0.4943 -0.1400 -0.9959
  273DOPC  H13R37610   9.082   3.335   3.770 -0.2334 -0.2354  0.7742
  273DOPC  H13S37611   9.256   3.312   3.776 -0.4548  0.3707 -2.1902
  273DOPC  C21437612   9.142   3.150   3.861  0.8272  0.5226 -0.0982
  273DOPC  H14R37613   9.231   3.083   3.857 -0.0558 -0.6473 -0.9490
  273DOPC  H14S37614   9.053   3.091   3.831  1.7252 -0.3689 -1.0848
  273DOPC  C21537615   9.125   3.208   4.003 -0.1452  0.1638 -0.0715
  273DOPC  H15R37616   9.034   3.272   4.005 -0.9589 -0.9453 -0.8028
  273DOPC  H15S37617   9.218   3.262   4.033 -1.2252  0.6382  2.7414
  273DOPC  C21637618   9.110   3.101   4.119 -0.4300  0.1053 -0.1834
  273DOPC  H16R37619   9.192   3.027   4.109  0.1932  0.3405  2.4870
  273DOPC  H16S37620   9.012   3.052   4.101 -0.8732  1.1101 -0.5480
  273DOPC  C21737621   9.116   3.175   4.260  0.2823  0.2188  0.0199
  273DOPC  H17R37622   9.085   3.097   4.332  2.0966 -0.0551  0.5512
  273DOPC  H17S37623   9.033   3.249   4.263 -0.3327 -0.4908  2.3218
  273DOPC  C21837624   9.247   3.236   4.308 -0.1486  0.5764  0.1924
  273DOPC  H18R37625   9.288   3.320   4.248 -0.0524  0.9349  0.7534
  273DOPC  H18S37626   9.326   3.159   4.315 -0.5685  0.2938  2.5089
  273DOPC  H18T37627   9.228   3.279   4.409 -4.2317  1.4619 -0.7604
  273DOPC   C3337628   9.587   2.811   2.866  0.5880  0.4779  0.8526
  273DOPC   H3X37629   9.661   2.893   2.850  1.6597 -0.7169 -0.6295
  273DOPC   H3Y37630   9.641   2.719   2.835  1.4239  1.6688 -1.4645
  273DOPC   C3437631   9.537   2.797   3.010 -0.2006  0.4846 -0.1902
  273DOPC   H4X37632   9.481   2.703   3.027  2.9898 -1.3217  1.1445
  273DOPC   H4Y37633   9.486   2.891   3.041  0.5468  1.2917 -1.3148
  273DOPC   C3537634   9.653   2.786   3.108 -0.2952  0.5057 -0.1000
  273DOPC   H5X37635   9.714   2.877   3.128  2.4521 -1.1251 -0.4606
  273DOPC   H5Y37636   9.732   2.715   3.073 -0.9311 -0.1676 -0.2041
  273DOPC   C3637637   9.605   2.728   3.243  0.0781 -0.5336  0.5665
  273DOPC   H6X37638   9.522   2.793   3.277 -0.4449  0.5280 -2.4748
  273DOPC   H6Y37639   9.577   2.621   3.230  0.7191 -1.2210  3.7607
  273DOPC   C3737640   9.727   2.715   3.343 -0.2163  0.2654  0.2431
  273DOPC   H7X37641   9.806   2.660   3.287 -0.2649 -0.4017  0.8216
  273DOPC   H7Y37642   9.759   2.819   3.366  0.8749  0.0920 -0.3878
  273DOPC   C3837643   9.705   2.653   3.481 -0.2974  0.5118 -0.4990
  273DOPC   H8X37644   9.654   2.556   3.464 -1.1064  0.9875 -0.8320
  273DOPC   H8Y37645   9.633   2.710   3.543  1.9290  0.9174  1.9026
  273DOPC   C3937646   9.830   2.634   3.555 -0.7941 -0.5408 -0.2040
  273DOPC   H9X37647   9.905   2.576   3.498  1.5987  1.9163  0.2516
  273DOPC  C31037648   9.874   2.682   3.673 -0.3807 -0.5664 -0.1424
  273DOPC  H10X37649   9.973   2.658   3.713  0.0928  0.7486 -0.4860
  273DOPC  C31137650   9.785   2.768   3.766  0.6965  0.0234  0.2413
  273DOPC  H11X37651   9.801   2.742   3.873  0.2017  1.2027  0.6135
  273DOPC  H11Y37652   9.675   2.768   3.749  0.5401  1.0025  1.1385
  273DOPC  C31237653   9.824   2.918   3.751 -0.3840 -0.2588  0.8176
  273DOPC  H12X37654   9.761   2.978   3.820 -0.4039 -0.2167  0.7634
  273DOPC  H12Y37655   9.800   2.951   3.647 -1.0225  0.8477  1.2965
  273DOPC  C31337656   9.968   2.948   3.788 -0.5013 -0.0532 -0.4363
  273DOPC  H13X37657  10.027   2.886   3.717  0.1744  0.8252 -0.6708
  273DOPC  H13Y37658   9.992   3.055   3.769 -0.1607  0.2898  1.7467
  273DOPC  C31437659  10.006   2.917   3.933  0.8353 -0.7432  0.4204
  273DOPC  H14X37660   9.934   2.963   4.004 -0.5570 -2.1195 -0.0259
  273DOPC  H14Y37661   9.991   2.809   3.952 -1.2954 -0.3902  1.0384
  273DOPC  C31537662  10.139   2.978   3.977  0.3400 -0.2343  0.2070
  273DOPC  H15X37663  10.116   3.084   4.001 -2.0998 -0.5453 -0.5391
  273DOPC  H15Y37664  10.208   2.980   3.890  1.8433  0.5952  1.3721
  273DOPC  C31637665  10.202   2.921   4.103 -0.2222 -0.0527  0.1437
  273DOPC  H16X37666  10.223   2.815   4.078  1.7154  0.7094 -1.7728
  273DOPC  H16Y37667  10.301   2.969   4.118 -0.1148 -0.0738 -0.4716
  273DOPC  C31737668  10.120   2.938   4.228  0.6745 -0.0279  0.6332
  273DOPC  H17X37669  10.111   3.047   4.247 -0.7658 -0.0052 -0.0539
  273DOPC  H17Y37670  10.015   2.904   4.217 -0.0674  2.6422 -1.6756
  273DOPC  C31837671  10.184   2.858   4.354 -0.6415  0.0782  0.6069
  273DOPC  H18X37672  10.286   2.898   4.373 -0.7183 -0.0323  1.2967
  273DOPC  H18Y37673  10.119   2.854   4.444 -1.2025 -2.5536  0.1574
  273DOPC  H18Z37674  10.191   2.754   4.315 -3.2874  0.1854 -0.2794
  274DOPC     N37675  10.348   5.069   1.169  0.1323  0.3266  0.8356
  274DOPC   C1237676  10.241   4.964   1.172 -0.1843  0.0626  0.2236
  274DOPC  H12A37677  10.247   4.906   1.263 -0.0738 -1.0193 -0.4583
  274DOPC  H12B37678  10.242   4.910   1.079 -1.3458  1.6092 -0.7360
  274DOPC   C1337679  10.341   5.145   1.040  0.1755 -0.7533  0.1961
  274DOPC  H13A37680  10.329   5.080   0.954 -0.6532  0.2545 -0.4681
  274DOPC  H13B37681  10.259   5.215   1.041 -0.6097 -1.6194 -0.8381
  274DOPC  H13C37682  10.428   5.205   1.016  0.5264 -1.8507 -1.4749
  274DOPC   C1437683  10.490   5.007   1.160  0.4270 -0.2866  0.2414
  274DOPC  H14A37684  10.510   4.943   1.245 -0.4397 -1.3982 -0.3673
  274DOPC  H14B37685  10.498   4.948   1.070 -0.7000  2.6724 -1.9452
  274DOPC  H14C37686  10.556   5.088   1.135 -1.0626  1.0380  0.4485
  274DOPC   C1537687  10.346   5.162   1.288 -0.3413  0.5296  0.0032
  274DOPC  H15A37688  10.379   5.113   1.379 -0.2684  1.3371  0.4229
  274DOPC  H15B37689  10.244   5.188   1.313 -1.5401 -0.9406 -2.9013
  274DOPC  H15C37690  10.407   5.252   1.292 -1.1989  1.0926  1.1312
  274DOPC   C1137691  10.095   5.013   1.196  0.3568  0.0190  0.7604
  274DOPC  H11A37692  10.082   5.119   1.164  0.3877 -0.2747 -0.2363
  274DOPC  H11B37693  10.038   4.948   1.127  0.7152  1.1915 -0.6946
  274DOPC     P37694   9.905   5.034   1.365  0.0968  0.1447 -0.4520
  274DOPC   O1337695   9.834   4.913   1.413  0.5765  0.6515 -0.2080
  274DOPC   O1437696   9.839   5.102   1.250 -0.5081  0.0444 -0.2816
  274DOPC   O1237697  10.053   4.992   1.329 -0.2756  0.1474 -0.3758
  274DOPC   O1137698   9.923   5.132   1.487 -0.0884 -0.0774  0.3370
  274DOPC    C137699  10.020   5.134   1.581 -0.6203  0.4117  0.2703
  274DOPC    HA37700  10.016   5.230   1.637  0.0963  0.4210  0.3159
  274DOPC    HB37701  10.123   5.129   1.541 -1.7874  0.9419 -3.1183
  274DOPC    C237702  10.000   5.019   1.687 -0.0555 -0.7047 -0.3617
  274DOPC    HS37703   9.999   4.920   1.635  1.3966 -0.9785  0.0879
  274DOPC   O2137704   9.872   5.047   1.754 -0.1075  1.0348  0.2659
  274DOPC   C2137705   9.822   4.934   1.811 -0.1295  0.4286  0.2458
  274DOPC   O2237706   9.873   4.824   1.809 -0.1186  0.0491 -0.0161
  274DOPC   C2237707   9.690   4.975   1.887 -0.4012 -0.9100 -0.2826
  274DOPC   H2R37708   9.626   5.030   1.815  1.5435  1.8451 -0.0569
  274DOPC   H2S37709   9.716   5.040   1.973 -2.3164 -2.9061  1.9454
  274DOPC    C337710  10.119   5.020   1.786 -0.1457  0.6666  0.3112
  274DOPC    HX37711  10.210   5.011   1.724 -0.2137  4.0604 -0.4364
  274DOPC    HY37712  10.119   4.934   1.856  1.6310 -0.2190 -0.7038
  274DOPC   O3137713  10.138   5.141   1.862 -0.1419  0.0959 -0.3282
  274DOPC   C3137714  10.061   5.150   1.978  0.5490  0.2803 -0.3228
  274DOPC   O3237715   9.989   5.063   2.026  0.1719 -0.7351  0.2364
  274DOPC   C3237716  10.091   5.283   2.050  0.0491  0.3682  0.0873
  274DOPC   H2X37717  10.181   5.266   2.112  0.3422 -0.2692 -0.5017
  274DOPC   H2Y37718  10.119   5.360   1.975  1.1412 -0.3192 -0.2279
  274DOPC   C2337719   9.621   4.858   1.952  0.1397  0.0142  0.1240
  274DOPC   H3R37720   9.631   4.769   1.887 -1.3171 -0.0700 -0.0283
  274DOPC   H3S37721   9.512   4.874   1.968 -0.4486 -1.7717 -1.7193
  274DOPC   C2437722   9.681   4.825   2.094  0.2445 -0.0628  0.2311
  274DOPC   H4R37723   9.663   4.909   2.164  1.3611 -0.0523  0.5205
  274DOPC   H4S37724   9.791   4.815   2.089  0.1485 -0.5672 -1.6140
  274DOPC   C2537725   9.628   4.690   2.152 -0.3381  0.5094 -0.6892
  274DOPC   H5R37726   9.651   4.611   2.078 -0.9104  0.2766 -0.6237
  274DOPC   H5S37727   9.519   4.701   2.136 -0.1514  2.6533 -0.8777
  274DOPC   C2637728   9.657   4.670   2.300 -0.1270  0.0026  0.3069
  274DOPC   H6R37729   9.579   4.603   2.342  1.1880  0.1352  3.1693
  274DOPC   H6S37730   9.661   4.769   2.350  0.1465  0.2533 -0.1972
  274DOPC   C2737731   9.797   4.618   2.336 -0.2733  0.5729  0.2831
  274DOPC   H7R37732   9.864   4.700   2.304 -0.8172  0.7134 -0.5192
  274DOPC   H7S37733   9.831   4.526   2.285  2.1147  2.8973 -2.6067
  274DOPC   C2837734   9.805   4.600   2.484 -0.4620  0.1619 -0.3302
  274DOPC   H8R37735   9.724   4.526   2.504 -0.7368  0.4989 -0.1889
  274DOPC   H8S37736   9.779   4.692   2.541 -0.6253 -0.9888  1.5401
  274DOPC   C2937737   9.935   4.534   2.534  0.6381  0.6930 -0.1087
  274DOPC   H9R37738   9.970   4.453   2.469 -1.3101 -2.2803  2.2842
  274DOPC  C21037739  10.005   4.539   2.649  0.2411 -0.4388  0.9593
  274DOPC  H10R37740  10.094   4.478   2.671  2.0959  2.4981  2.4024
  274DOPC  C21137741   9.970   4.643   2.753 -0.0063 -0.1252 -0.1665
  274DOPC  H11R37742   9.932   4.732   2.699 -2.0371 -0.8127  0.0459
  274DOPC  H11S37743  10.055   4.693   2.805  0.5666 -1.6264  0.4008
  274DOPC  C21237744   9.890   4.571   2.856  0.5600  0.7540 -0.2560
  274DOPC  H12R37745   9.942   4.478   2.885 -1.4720 -0.7025 -1.0272
  274DOPC  H12S37746   9.789   4.540   2.822  1.0911 -2.0824  0.4934
  274DOPC  C21337747   9.865   4.650   2.988  0.0026  0.3919 -0.2582
  274DOPC  H13R37748   9.812   4.582   3.058 -0.7253  2.1144  0.9083
  274DOPC  H13S37749   9.794   4.735   2.986  0.1528  0.5051 -1.0524
  274DOPC  C21437750   9.991   4.690   3.072 -0.3479  0.5266  0.4540
  274DOPC  H14R37751  10.056   4.751   3.005  1.1788 -1.4495  0.0254
  274DOPC  H14S37752  10.044   4.594   3.091 -0.9779  0.3371  1.2659
  274DOPC  C21537753   9.956   4.762   3.197  0.2670  0.1459  0.0860
  274DOPC  H15R37754   9.893   4.700   3.265  0.0830  0.8962  0.6038
  274DOPC  H15S37755   9.904   4.856   3.169  0.8909  0.4587 -0.0315
  274DOPC  C21637756  10.087   4.807   3.268 -0.0916 -0.6962 -0.5997
  274DOPC  H16R37757  10.149   4.722   3.305  0.9022  0.6564  1.0185
  274DOPC  H16S37758  10.053   4.849   3.364 -0.8978 -0.2896 -1.0519
  274DOPC  C21737759  10.180   4.909   3.207 -0.4777 -0.3962  0.1983
  274DOPC  H17R37760  10.123   5.004   3.197 -0.9943 -0.5449  1.5164
  274DOPC  H17S37761  10.222   4.882   3.108  1.5491 -3.0080  1.6308
  274DOPC  C21837762  10.290   4.948   3.305  0.2555 -0.0284  0.3841
  274DOPC  H18R37763  10.243   5.004   3.389 -0.4989  1.1187 -0.7649
  274DOPC  H18S37764  10.358   5.025   3.262 -0.8509  0.4086 -0.6625
  274DOPC  H18T37765  10.344   4.857   3.336  2.6118  0.9927 -0.5129
  274DOPC   C3337766   9.974   5.341   2.128  0.0187 -0.5213  0.3956
  274DOPC   H3X37767   9.948   5.269   2.208  2.3545 -0.1957  1.5451
  274DOPC   H3Y37768   9.879   5.350   2.070 -0.1324 -1.1379  0.5457
  274DOPC   C3437769  10.007   5.478   2.192 -0.0947  0.5776  0.3743
  274DOPC   H4X37770  10.026   5.558   2.118 -0.8782  1.1615  0.7862
  274DOPC   H4Y37771  10.100   5.469   2.253  0.0442  2.5407  0.5297
  274DOPC   C3537772   9.897   5.528   2.293  0.3106 -0.3714 -0.9521
  274DOPC   H5X37773   9.812   5.561   2.228 -2.6307 -3.4349  1.0076
  274DOPC   H5Y37774   9.938   5.619   2.342 -1.3710  0.4765 -1.0517
  274DOPC   C3637775   9.843   5.429   2.401 -0.2889 -0.0138 -0.1217
  274DOPC   H6X37776   9.775   5.357   2.349  0.2681 -0.5822 -0.0741
  274DOPC   H6Y37777   9.933   5.372   2.432  1.6052  2.4343 -0.8247
  274DOPC   C3737778   9.767   5.499   2.521 -0.9143  0.1329 -0.2713
  274DOPC   H7X37779   9.812   5.597   2.549 -0.7466  0.0141 -0.1224
  274DOPC   H7Y37780   9.658   5.509   2.500 -0.9427  2.4550  0.6339
  274DOPC   C3837781   9.767   5.412   2.654 -1.0881 -0.0926 -0.0840
  274DOPC   H8X37782   9.740   5.307   2.633 -0.2971 -0.2479 -0.3755
  274DOPC   H8Y37783   9.682   5.454   2.712 -0.0178  0.0260  1.4645
  274DOPC   C3937784   9.892   5.423   2.735 -0.6709  0.2217  0.2723
  274DOPC   H9X37785   9.979   5.366   2.701  0.2711  1.5537  0.3475
  274DOPC  C31037786   9.910   5.496   2.846 -0.2603 -0.4772 -0.1161
  274DOPC  H10X37787  10.009   5.489   2.892  0.0207  0.0747 -0.6279
  274DOPC  C31137788   9.801   5.571   2.919 -0.4797  0.0579  0.3482
  274DOPC  H11X37789   9.702   5.573   2.868 -1.1482 -0.2082  1.6068
  274DOPC  H11Y37790   9.826   5.679   2.909 -0.5566  0.1533  1.1475
  274DOPC  C31237791   9.779   5.535   3.070 -0.6794 -0.3902  0.4576
  274DOPC  H12X37792   9.701   5.612   3.092 -1.7795 -0.3424 -2.9909
  274DOPC  H12Y37793   9.869   5.565   3.128 -0.2358  1.3430 -1.0084
  274DOPC  C31337794   9.727   5.393   3.110 -0.3977 -0.4580 -0.4123
  274DOPC  H13X37795   9.640   5.362   3.048 -1.3942  0.3533  0.5128
  274DOPC  H13Y37796   9.813   5.330   3.082 -0.3819  0.4165 -2.4665
  274DOPC  C31437797   9.682   5.393   3.256  0.4083 -0.1435 -0.2155
  274DOPC  H14X37798   9.769   5.419   3.320  1.7875 -1.4487 -1.4685
  274DOPC  H14Y37799   9.600   5.466   3.274  1.0842  0.8454 -1.0419
  274DOPC  C31537800   9.634   5.255   3.305 -0.4923  0.2706  0.4502
  274DOPC  H15X37801   9.545   5.230   3.243 -0.7152  0.4591  0.6907
  274DOPC  H15Y37802   9.617   5.264   3.414 -0.6063  0.2595  0.4330
  274DOPC  C31637803   9.744   5.150   3.282  0.0819  0.9390 -0.6866
  274DOPC  H16X37804   9.745   5.110   3.178  0.8379 -1.2833  0.1159
  274DOPC  H16Y37805   9.843   5.190   3.312  0.7775 -1.3781  0.3635
  274DOPC  C31737806   9.713   5.026   3.368 -0.0013 -0.0813 -0.3800
  274DOPC  H17X37807   9.781   4.944   3.335 -0.8544 -0.4441 -1.2712
  274DOPC  H17Y37808   9.737   5.048   3.474  1.3429  1.5802 -0.9755
  274DOPC  C31837809   9.575   4.974   3.357  0.1025  0.0841  0.1704
  274DOPC  H18X37810   9.570   4.885   3.424  3.2626  1.1277  2.0288
  274DOPC  H18Y37811   9.499   5.049   3.387 -0.2025  0.3479 -1.2293
  274DOPC  H18Z37812   9.545   4.946   3.254  3.3494 -1.6542 -0.4276
  275DOPC     N37813   6.501  11.068   1.794 -0.2833  0.3290  1.1203
  275DOPC   C1237814   6.439  11.057   1.941 -0.4965  0.2204  0.0946
  275DOPC  H12A37815   6.401  11.149   1.985  3.0635  0.9901  1.9147
  275DOPC  H12B37816   6.523  11.031   2.004  0.9139  0.4162 -1.6208
  275DOPC   C1337817   6.564  10.938   1.754  0.5965  0.4088 -0.0780
  275DOPC  H13A37818   6.480  10.873   1.739 -0.2394  1.0866  1.5124
  275DOPC  H13B37819   6.622  10.947   1.662  0.8701 -3.3474 -0.4168
  275DOPC  H13C37820   6.610  10.904   1.845 -2.2843 -0.1604  1.2705
  275DOPC   C1437821   6.604  11.176   1.786  0.1206 -0.1901 -0.2724
  275DOPC  H14A37822   6.648  11.169   1.688 -1.4340 -0.0477 -1.0095
  275DOPC  H14B37823   6.558  11.271   1.808 -1.2859 -0.5033 -1.6030
  275DOPC  H14C37824   6.682  11.164   1.860 -0.5480 -0.7637  0.3603
  275DOPC   C1537825   6.384  11.095   1.703  0.0486 -0.0590  0.3338
  275DOPC  H15A37826   6.329  11.184   1.730 -0.2927  0.2663 -1.3528
  275DOPC  H15B37827   6.317  11.011   1.699 -1.4038  1.0460  0.5374
  275DOPC  H15C37828   6.427  11.111   1.606  0.2558  1.9103  0.7095
  275DOPC   C1137829   6.331  10.957   1.968 -0.3624  0.3352 -0.1072
  275DOPC  H11A37830   6.311  10.967   2.077  2.8555 -0.0073  0.6191
  275DOPC  H11B37831   6.241  10.982   1.908 -0.9369  0.3415  0.7377
  275DOPC     P37832   6.277  10.706   1.939  0.2141  0.2620 -0.2286
  275DOPC   O1337833   6.354  10.582   1.942  0.0130  0.6829 -0.0210
  275DOPC   O1437834   6.185  10.733   1.825 -0.3396 -0.5313  0.3127
  275DOPC   O1237835   6.382  10.825   1.941  0.3206  0.2618 -0.9551
  275DOPC   O1137836   6.197  10.724   2.072  0.4327 -0.6296 -0.1493
  275DOPC    C137837   6.252  10.693   2.200 -0.1966  0.1653  0.4369
  275DOPC    HA37838   6.252  10.783   2.265  0.2172  0.3035  0.2536
  275DOPC    HB37839   6.359  10.663   2.195 -0.4430 -0.7075  0.1983
  275DOPC    C237840   6.180  10.566   2.266  0.4961 -0.3962  0.1908
  275DOPC    HS37841   6.182  10.482   2.193  1.2200  1.6660 -2.2955
  275DOPC   O2137842   6.043  10.592   2.293 -0.4140  0.2143  0.6663
  275DOPC   C2137843   5.953  10.489   2.279  0.8517 -0.4591  0.5929
  275DOPC   O2237844   5.978  10.378   2.231 -0.0892  0.0840  0.2983
  275DOPC   C2237845   5.813  10.536   2.327 -0.2659 -0.3694  0.2197
  275DOPC   H2R37846   5.762  10.585   2.242 -0.6062 -0.5784  0.3011
  275DOPC   H2S37847   5.831  10.615   2.404  1.7797 -0.1044 -0.4607
  275DOPC    C337848   6.251  10.521   2.397  0.5744 -0.0423 -0.1878
  275DOPC    HX37849   6.358  10.493   2.388  1.4094  2.5243  0.6388
  275DOPC    HY37850   6.199  10.429   2.428 -2.3199  2.5268  3.5181
  275DOPC   O3137851   6.239  10.617   2.496  0.2966 -0.3325 -0.6149
  275DOPC   C3137852   6.175  10.597   2.613 -1.2159  0.0613  0.2492
  275DOPC   O3237853   6.127  10.492   2.647  0.2167 -0.4086 -0.1337
  275DOPC   C3237854   6.182  10.723   2.700 -0.0015  0.4750  0.8424
  275DOPC   H2X37855   6.277  10.722   2.757  0.7380  0.6111 -0.3489
  275DOPC   H2Y37856   6.170  10.806   2.626  0.3779 -0.0938  0.1334
  275DOPC   C2337857   5.723  10.427   2.393  0.0024 -0.1986 -0.2457
  275DOPC   H3R37858   5.733  10.336   2.330  0.4723 -0.0298 -0.4173
  275DOPC   H3S37859   5.615  10.453   2.390  0.0690  0.0766 -0.2900
  275DOPC   C2437860   5.752  10.402   2.537 -0.1081  0.4435  1.2497
  275DOPC   H4R37861   5.741  10.502   2.584  1.9839  0.3933  1.9661
  275DOPC   H4S37862   5.855  10.365   2.559 -0.4910 -0.8325  0.9684
  275DOPC   C2537863   5.657  10.300   2.602  0.4244  0.5128 -0.7418
  275DOPC   H5R37864   5.658  10.203   2.548 -0.2709 -2.1213  3.5081
  275DOPC   H5S37865   5.552  10.335   2.590 -0.1488 -1.5890 -2.3218
  275DOPC   C2637866   5.694  10.278   2.748 -0.1261 -0.5716 -0.3023
  275DOPC   H6R37867   5.699  10.373   2.806  1.5878 -1.5768  1.3338
  275DOPC   H6S37868   5.790  10.221   2.752  0.0218 -0.4121 -1.2726
  275DOPC   C2737869   5.588  10.181   2.812 -0.0643  0.3041  0.0510
  275DOPC   H7R37870   5.622  10.077   2.790  2.0336  0.7619  0.9272
  275DOPC   H7S37871   5.499  10.200   2.749 -0.5629  1.5591  1.0880
  275DOPC   C2837872   5.560  10.211   2.956  0.8480  0.2642 -0.3493
  275DOPC   H8R37873   5.463  10.168   2.987  0.3007  1.4074 -0.4269
  275DOPC   H8S37874   5.550  10.320   2.975  1.2098  0.5925 -1.8550
  275DOPC   C2937875   5.665  10.143   3.037 -0.0283  0.6863 -0.2328
  275DOPC   H9R37876   5.656  10.033   3.042 -0.4495  0.7684  1.8054
  275DOPC  C21037877   5.762  10.207   3.110  0.6038  0.0834 -0.9812
  275DOPC  H10R37878   5.832  10.146   3.170  1.0463 -1.4725 -2.9293
  275DOPC  C21137879   5.778  10.356   3.129 -0.3395 -0.8238  0.8373
  275DOPC  H11R37880   5.742  10.419   3.045  1.1012 -0.2022  0.6500
  275DOPC  H11S37881   5.886  10.382   3.137 -0.2419  0.2776 -2.4785
  275DOPC  C21237882   5.710  10.391   3.261  0.0189  0.1618  0.5856
  275DOPC  H12R37883   5.600  10.384   3.255  0.1069 -0.1611 -1.6483
  275DOPC  H12S37884   5.727  10.500   3.275 -0.6488  0.6235 -1.8257
  275DOPC  C21337885   5.777  10.327   3.383  0.1162  0.0599 -0.0037
  275DOPC  H13R37886   5.885  10.351   3.372  0.0786  0.6667  0.8943
  275DOPC  H13S37887   5.758  10.218   3.370 -1.2135  0.4125 -1.2800
  275DOPC  C21437888   5.728  10.389   3.517  0.5367  0.3812  0.6517
  275DOPC  H14R37889   5.617  10.383   3.520  0.4775  0.3029 -0.8667
  275DOPC  H14S37890   5.755  10.497   3.528  0.5225  0.2018  2.8907
  275DOPC  C21537891   5.775  10.302   3.630  0.2060  0.0342  0.0074
  275DOPC  H15R37892   5.760  10.194   3.609  0.5671 -0.1923  0.8550
  275DOPC  H15S37893   5.716  10.321   3.723  0.2168  0.0266  0.0157
  275DOPC  C21637894   5.924  10.311   3.649 -1.4553 -0.7437  0.6214
  275DOPC  H16R37895   5.949  10.417   3.672 -0.4137 -0.6441 -0.8496
  275DOPC  H16S37896   5.985  10.293   3.558  0.9818  3.8940  0.9826
  275DOPC  C21737897   5.970  10.231   3.768  0.3504  0.5607 -0.3930
  275DOPC  H17R37898   5.934  10.127   3.751  2.4165 -0.6585  2.0013
  275DOPC  H17S37899   5.917  10.266   3.860  2.1554 -0.8844  1.3002
  275DOPC  C21837900   6.119  10.215   3.805 -0.2508 -0.3791 -0.7538
  275DOPC  H18R37901   6.144  10.127   3.869  1.5365 -0.6694 -1.7945
  275DOPC  H18S37902   6.160  10.301   3.863  1.1195 -1.6752  0.2616
  275DOPC  H18T37903   6.188  10.203   3.719  0.8437 -0.1489  0.0730
  275DOPC   C3337904   6.075  10.737   2.807  0.3300 -0.4785  0.0852
  275DOPC   H3X37905   6.088  10.830   2.867  0.3122 -1.5951  1.9100
  275DOPC   H3Y37906   6.088  10.656   2.881 -2.2269 -0.1544  0.9960
  275DOPC   C3437907   5.933  10.742   2.755  0.5326 -0.3878  0.4004
  275DOPC   H4X37908   5.906  10.674   2.672 -2.2430  1.9628 -0.8112
  275DOPC   H4Y37909   5.909  10.843   2.714  3.6237  0.2778 -0.0479
  275DOPC   C3537910   5.823  10.711   2.865 -0.6555  0.1197  0.2732
  275DOPC   H5X37911   5.844  10.784   2.946  0.1054  0.9360 -0.6256
  275DOPC   H5Y37912   5.846  10.610   2.904 -2.2407 -0.0179  0.9129
  275DOPC   C3637913   5.671  10.721   2.824  0.1763 -0.4425 -0.1879
  275DOPC   H6X37914   5.650  10.825   2.791 -2.0547 -0.5693  0.6447
  275DOPC   H6Y37915   5.649  10.641   2.750  2.7953 -1.1097 -0.3417
  275DOPC   C3737916   5.568  10.692   2.945  0.0814  0.7351 -0.1411
  275DOPC   H7X37917   5.592  10.584   2.959  0.3257  0.3386 -3.0338
  275DOPC   H7Y37918   5.603  10.756   3.029  0.3673 -0.1745  0.4502
  275DOPC   C3837919   5.418  10.713   2.895 -0.1100  0.4345  0.4690
  275DOPC   H8X37920   5.420  10.801   2.827 -2.8996 -0.7039 -1.2785
  275DOPC   H8Y37921   5.346  10.740   2.976 -0.7929 -0.6908  0.2710
  275DOPC   C3937922   5.363  10.589   2.818  0.7272 -0.2218  0.1892
  275DOPC   H9X37923   5.408  10.567   2.720  0.5955 -1.4483  0.3962
  275DOPC  C31037924   5.277  10.502   2.870 -0.4189  0.0595  0.0121
  275DOPC  H10X37925   5.238  10.428   2.799  2.4507  0.9409 -2.7318
  275DOPC  C31137926   5.221  10.504   3.010 -0.1096 -0.4297  0.0182
  275DOPC  H11X37927   5.217  10.609   3.046  1.0576  0.2717 -1.7439
  275DOPC  H11Y37928   5.113  10.477   3.000 -0.1618  0.0569 -0.8112
  275DOPC  C31237929   5.287  10.422   3.116  0.2563 -0.0868  0.4313
  275DOPC  H12X37930   5.396  10.440   3.127  0.3961 -0.6545  0.0700
  275DOPC  H12Y37931   5.302  10.316   3.086 -1.6016 -0.1257 -0.4897
  275DOPC  C31337932   5.213  10.421   3.247 -1.4698  0.0904 -0.5455
  275DOPC  H13X37933   5.205  10.522   3.292 -0.2816  0.4634 -1.1274
  275DOPC  H13Y37934   5.112  10.375   3.249 -0.7950 -1.4326  0.0014
  275DOPC  C31437935   5.295  10.343   3.354 -0.4310 -0.3272 -0.0321
  275DOPC  H14X37936   5.305  10.236   3.326  1.2664 -0.2268  0.0743
  275DOPC  H14Y37937   5.402  10.373   3.347  0.5512 -3.1436  1.4593
  275DOPC  C31537938   5.237  10.369   3.495 -0.0583  0.1493 -0.6681
  275DOPC  H15X37939   5.138  10.319   3.498 -0.3750  0.8281  0.3126
  275DOPC  H15Y37940   5.220  10.478   3.507 -0.3619 -0.0483  0.8120
  275DOPC  C31637941   5.315  10.331   3.613 -0.2692  0.1719 -0.6258
  275DOPC  H16X37942   5.403  10.398   3.624 -0.6011  0.3018  1.7940
  275DOPC  H16Y37943   5.255  10.364   3.700 -0.9503 -0.7992 -0.7131
  275DOPC  C31737944   5.360  10.186   3.629  0.0541 -0.2747 -0.0092
  275DOPC  H17X37945   5.272  10.120   3.613 -0.1092 -0.0007 -0.2648
  275DOPC  H17Y37946   5.435  10.173   3.548 -0.2272  0.8919 -0.4854
  275DOPC  C31837947   5.417  10.148   3.765 -0.5964  0.2503 -0.3230
  275DOPC  H18X37948   5.487  10.224   3.804 -0.5074 -0.4190  0.8677
  275DOPC  H18Y37949   5.332  10.144   3.836  0.5804  0.5047  1.1404
  275DOPC  H18Z37950   5.472  10.052   3.750  1.1458  1.4497 -2.0982
  276DOPC     N37951   8.920   3.914   1.814  1.1118  0.2774  0.9991
  276DOPC   C1237952   8.802   3.889   1.911 -0.1237 -0.1702 -0.2321
  276DOPC  H12A37953   8.732   3.971   1.907  0.3037  0.3638  2.0654
  276DOPC  H12B37954   8.843   3.866   2.008  0.3223 -1.6857 -0.7583
  276DOPC   C1337955   8.861   3.951   1.677 -0.0218  0.3881  0.1840
  276DOPC  H13A37956   8.795   4.036   1.675  0.3536  0.7727 -3.7071
  276DOPC  H13B37957   8.942   3.960   1.606 -1.7293  0.8758 -1.8109
  276DOPC  H13C37958   8.799   3.871   1.639  0.4289  0.7237 -1.3162
  276DOPC   C1437959   9.016   3.805   1.816  0.5616  1.1123  0.9703
  276DOPC  H14A37960   8.992   3.710   1.769  1.5774  1.5721 -0.5481
  276DOPC  H14B37961   9.098   3.848   1.761 -1.2118  2.1639 -0.9978
  276DOPC  H14C37962   9.056   3.781   1.913 -0.9769 -2.6622  0.8562
  276DOPC   C1537963   8.996   4.036   1.864 -0.1354  0.0584  0.5364
  276DOPC  H15A37964   9.055   4.080   1.785  1.1838  2.7414  2.8547
  276DOPC  H15B37965   9.064   4.012   1.944  0.1038 -0.2428  0.2428
  276DOPC  H15C37966   8.932   4.116   1.898 -0.2218 -0.3673  1.4025
  276DOPC   C1137967   8.705   3.769   1.882  0.2135 -0.1006  0.1714
  276DOPC  H11A37968   8.626   3.780   1.960  0.0406 -1.9236  0.2801
  276DOPC  H11B37969   8.662   3.780   1.780  0.7115 -0.4603 -0.0791
  276DOPC     P37970   8.763   3.543   2.007 -0.2320  0.3634  0.0293
  276DOPC   O1337971   8.836   3.423   1.956  0.6960  0.6804  0.2191
  276DOPC   O1437972   8.628   3.531   2.054  0.0230  0.1688  0.1147
  276DOPC   O1237973   8.767   3.651   1.893 -0.3927 -0.2789  1.0930
  276DOPC   O1137974   8.852   3.627   2.110  0.1972 -0.3239 -0.4223
  276DOPC    C137975   8.786   3.702   2.212  0.4974  0.1639 -1.0132
  276DOPC    HA37976   8.680   3.714   2.181  0.1746 -3.5589 -1.8758
  276DOPC    HB37977   8.832   3.803   2.225  1.5980 -0.2499 -1.5444
  276DOPC    C237978   8.795   3.626   2.349 -0.1500 -0.3100  0.2942
  276DOPC    HS37979   8.898   3.588   2.363  0.6832  1.4746 -0.6942
  276DOPC   O2137980   8.687   3.519   2.346  0.0911 -0.1042 -0.2811
  276DOPC   C2137981   8.737   3.394   2.325 -0.0220 -0.5928  0.6818
  276DOPC   O2237982   8.855   3.366   2.314  0.0702 -0.1636  0.1988
  276DOPC   C2237983   8.619   3.296   2.318  0.1479  0.3307  0.5576
  276DOPC   H2R37984   8.624   3.243   2.220 -2.5836  0.5871  0.2168
  276DOPC   H2S37985   8.522   3.349   2.323 -0.4948 -0.4145 -2.3089
  276DOPC    C337986   8.753   3.721   2.463  0.1855  0.5306 -0.1026
  276DOPC    HX37987   8.646   3.748   2.452  0.4444  2.1904  1.1663
  276DOPC    HY37988   8.807   3.818   2.469  0.7520  0.1553  1.0974
  276DOPC   O3137989   8.758   3.667   2.597  0.3118  0.0447 -0.4738
  276DOPC   C3137990   8.884   3.675   2.658  0.1195  0.0685  0.3749
  276DOPC   O3237991   8.977   3.736   2.612  0.6441 -0.0539  0.0890
  276DOPC   C3237992   8.879   3.590   2.786 -0.3697  0.9452 -0.0521
  276DOPC   H2X37993   8.943   3.638   2.863 -0.8131  0.9721  0.3003
  276DOPC   H2Y37994   8.772   3.592   2.814 -0.7751  0.0962 -1.4326
  276DOPC   C2337995   8.622   3.186   2.428 -0.3585  0.2859  0.5983
  276DOPC   H3R37996   8.720   3.135   2.433 -0.4765  0.1485  1.9432
  276DOPC   H3S37997   8.544   3.111   2.402 -0.3215 -0.1761  1.7423
  276DOPC   C2437998   8.586   3.239   2.568  0.0522 -0.6965  0.0504
  276DOPC   H4R37999   8.488   3.291   2.573  0.8455  0.7547  1.2896
  276DOPC   H4S38000   8.663   3.316   2.592 -0.4837 -0.0117 -0.3926
  276DOPC   C2538001   8.596   3.126   2.672  0.8704 -0.5763  0.4228
  276DOPC   H5R38002   8.699   3.085   2.673  1.5471  1.0483  0.9855
  276DOPC   H5S38003   8.530   3.044   2.637  0.3420 -0.1201  0.3365
  276DOPC   C2638004   8.556   3.187   2.808  0.4908  0.0441  0.8789
  276DOPC   H6R38005   8.448   3.210   2.797  0.0089 -2.5115 -0.5978
  276DOPC   H6S38006   8.625   3.268   2.840  1.7562 -1.8883  3.4455
  276DOPC   C2738007   8.585   3.071   2.909  0.2416  0.2244  0.3771
  276DOPC   H7R38008   8.690   3.044   2.887  0.4145  0.3376  1.0528
  276DOPC   H7S38009   8.515   2.986   2.894 -0.2754  0.6172  0.5265
  276DOPC   C2838010   8.562   3.113   3.053  0.1899  0.7191 -1.0731
  276DOPC   H8R38011   8.579   3.022   3.115 -2.1933  1.7419  1.2575
  276DOPC   H8S38012   8.459   3.154   3.058  1.0765  3.0468 -0.8222
  276DOPC   C2938013   8.656   3.223   3.100  0.1153  0.6845 -0.1540
  276DOPC   H9R38014   8.631   3.328   3.079  2.3214  0.9185 -2.0057
  276DOPC  C21038015   8.755   3.212   3.191  0.3278  0.6646  0.6515
  276DOPC  H10R38016   8.806   3.305   3.221  0.6728  0.9122 -0.6404
  276DOPC  C21138017   8.784   3.087   3.276 -0.0697  0.1269 -0.1436
  276DOPC  H11R38018   8.889   3.055   3.292 -0.4002 -0.6184  0.5927
  276DOPC  H11S38019   8.728   2.995   3.245  0.0732  0.0509 -0.1755
  276DOPC  C21238020   8.735   3.107   3.421  0.3975  0.3257  0.4569
  276DOPC  H12R38021   8.627   3.135   3.418  0.2165 -0.4320 -1.6635
  276DOPC  H12S38022   8.795   3.186   3.471 -1.0142  2.5869 -1.2462
  276DOPC  C21338023   8.751   2.974   3.491 -0.4307 -0.3152 -1.1750
  276DOPC  H13R38024   8.851   2.928   3.474 -0.2296 -0.4602  0.3044
  276DOPC  H13S38025   8.677   2.896   3.463  1.9375 -2.8849 -0.7183
  276DOPC  C21438026   8.730   2.996   3.643 -0.3144  0.2536  0.4245
  276DOPC  H14R38027   8.630   3.042   3.659 -0.3793  0.0102  0.7208
  276DOPC  H14S38028   8.817   3.057   3.677 -0.2578 -0.7656  2.2341
  276DOPC  C21538029   8.729   2.856   3.704 -0.9509 -0.4620 -0.5820
  276DOPC  H15R38030   8.828   2.807   3.695 -0.3422  0.8493 -1.5331
  276DOPC  H15S38031   8.648   2.799   3.655 -1.2276 -0.5930  0.0248
  276DOPC  C21638032   8.728   2.858   3.859  0.0810  0.2567  0.0271
  276DOPC  H16R38033   8.634   2.910   3.889 -0.2094  0.3190 -0.9609
  276DOPC  H16S38034   8.821   2.914   3.880 -0.6283  2.4898 -2.2287
  276DOPC  C21738035   8.720   2.718   3.911  0.2205  0.4985 -0.0961
  276DOPC  H17R38036   8.778   2.711   4.006  0.2133  0.3305 -0.1047
  276DOPC  H17S38037   8.764   2.641   3.844 -1.0037  1.6126 -2.3006
  276DOPC  C21838038   8.574   2.675   3.943  0.1204 -0.6237  0.3391
  276DOPC  H18R38039   8.512   2.675   3.851  1.4897  0.6080 -0.6370
  276DOPC  H18S38040   8.534   2.754   4.010 -0.5924  0.2139 -1.0077
  276DOPC  H18T38041   8.577   2.574   3.989  0.7978 -1.3096 -1.1184
  276DOPC   C3338042   8.945   3.445   2.766  0.3608 -0.0961  1.2356
  276DOPC   H3X38043   9.041   3.450   2.710 -0.8337  1.1894 -0.8332
  276DOPC   H3Y38044   8.877   3.405   2.688  0.1839 -0.5325  1.6126
  276DOPC   C3438045   8.934   3.346   2.875  0.2615 -0.3871 -0.5731
  276DOPC   H4X38046   8.825   3.343   2.894 -0.3013  1.3739 -3.0498
  276DOPC   H4Y38047   8.995   3.375   2.963  1.2691  0.8643 -1.6342
  276DOPC   C3538048   8.970   3.210   2.817 -0.5325 -0.3047 -0.2058
  276DOPC   H5X38049   9.058   3.229   2.753 -1.2992  3.0057 -0.4563
  276DOPC   H5Y38050   8.892   3.186   2.742 -0.6880  1.3946 -0.6302
  276DOPC   C3638051   8.994   3.099   2.920 -0.6807  0.5310 -0.0081
  276DOPC   H6X38052   9.066   3.145   2.991  0.5594  0.2302 -1.0285
  276DOPC   H6Y38053   8.897   3.081   2.969 -0.2637 -1.4232  0.1595
  276DOPC   C3738054   9.066   2.972   2.866 -0.3904 -0.2370  0.1039
  276DOPC   H7X38055   9.013   2.929   2.778 -0.4795 -0.3221  0.1981
  276DOPC   H7Y38056   9.167   3.004   2.836  0.1729 -1.8721  0.1387
  276DOPC   C3838057   9.060   2.862   2.973  0.0106  0.2705 -0.3879
  276DOPC   H8X38058   8.954   2.836   2.994  0.7434 -0.9215  2.2292
  276DOPC   H8Y38059   9.107   2.910   3.061  1.2308 -1.2924 -0.1566
  276DOPC   C3938060   9.123   2.733   2.949 -0.8363  0.4834  0.5324
  276DOPC   H9X38061   9.142   2.708   2.844 -0.9762 -0.6409  0.7594
  276DOPC  C31038062   9.146   2.648   3.048 -0.2176  0.3224 -0.4298
  276DOPC  H10X38063   9.201   2.554   3.029  1.3383  0.9804  0.6304
  276DOPC  C31138064   9.126   2.670   3.194 -0.1103  0.4940 -0.2349
  276DOPC  H11X38065   9.121   2.572   3.246  1.3253  0.6273  0.1951
  276DOPC  H11Y38066   9.033   2.722   3.226 -0.9466 -1.0919  0.0481
  276DOPC  C31238067   9.237   2.736   3.272 -0.6590  0.7196  0.7587
  276DOPC  H12X38068   9.266   2.835   3.229 -2.7502  0.7075 -0.8398
  276DOPC  H12Y38069   9.328   2.673   3.271  0.6532  2.4578  2.5947
  276DOPC  C31338070   9.193   2.763   3.418 -0.0293  0.2103 -0.4171
  276DOPC  H13X38071   9.248   2.856   3.444  0.7368  0.2650 -2.0907
  276DOPC  H13Y38072   9.088   2.798   3.421 -0.3956 -0.1105 -4.2103
  276DOPC  C31438073   9.226   2.661   3.525 -0.2171 -0.2231 -0.8034
  276DOPC  H14X38074   9.175   2.566   3.497 -1.5974  0.5311 -0.9332
  276DOPC  H14Y38075   9.335   2.639   3.531  0.1902  1.9012  1.4958
  276DOPC  C31538076   9.184   2.689   3.675 -0.2524  0.1492 -0.1041
  276DOPC  H15X38077   9.073   2.691   3.676 -0.2679  0.2292  2.0352
  276DOPC  H15Y38078   9.224   2.787   3.707  1.2984 -0.4198 -0.1969
  276DOPC  C31638079   9.226   2.588   3.777  0.5871  0.2504 -0.5752
  276DOPC  H16X38080   9.208   2.481   3.754  1.3741  0.0318 -0.2228
  276DOPC  H16Y38081   9.329   2.600   3.817  0.5753 -0.5396 -0.2974
  276DOPC  C31738082   9.125   2.607   3.893 -0.1673  0.3909  0.1118
  276DOPC  H17X38083   9.026   2.571   3.858  0.0504  1.4095 -1.6367
  276DOPC  H17Y38084   9.167   2.550   3.979 -1.0788 -0.5558 -0.0550
  276DOPC  C31838085   9.093   2.752   3.927 -0.6394 -0.3345  0.1847
  276DOPC  H18X38086   9.035   2.799   3.845 -0.4341 -0.6420 -0.1419
  276DOPC  H18Y38087   9.029   2.735   4.016  0.0802  0.8134  0.9468
  276DOPC  H18Z38088   9.162   2.820   3.981 -0.6564 -0.1078 -0.0760
  277DOPC     N38089   1.771  10.431   1.922 -0.6807  0.5049 -0.4376
  277DOPC   C1238090   1.922  10.414   1.898 -0.0577 -0.2737 -0.7580
  277DOPC  H12A38091   1.974  10.505   1.872 -0.3213  0.3468  0.7934
  277DOPC  H12B38092   1.946  10.349   1.815  0.0480 -0.4807 -0.5661
  277DOPC   C1338093   1.755  10.501   2.049 -0.1959  0.4545  0.9544
  277DOPC  H13A38094   1.652  10.497   2.081 -0.9226  1.9604 -0.9648
  277DOPC  H13B38095   1.808  10.449   2.127 -0.5585  0.0666  0.9413
  277DOPC  H13C38096   1.774  10.608   2.051  1.2525  0.2171  1.7426
  277DOPC   C1438097   1.709  10.292   1.920 -0.6985  0.5650  0.6034
  277DOPC  H14A38098   1.754  10.235   2.000  1.9599 -0.8801 -1.7554
  277DOPC  H14B38099   1.601  10.292   1.927 -0.6997 -0.7003  0.8864
  277DOPC  H14C38100   1.739  10.241   1.830 -0.3772  0.7100  0.6268
  277DOPC   C1538101   1.699  10.514   1.817 -0.2908 -0.1382 -0.4437
  277DOPC  H15A38102   1.600  10.536   1.853 -0.2097 -0.4609 -0.0297
  277DOPC  H15B38103   1.681  10.456   1.727 -1.3572 -2.2805  1.0881
  277DOPC  H15C38104   1.760  10.603   1.803  0.3078 -0.5204 -0.2895
  277DOPC   C1138105   1.998  10.343   2.012 -0.2273  0.9346 -0.8739
  277DOPC  H11A38106   2.105  10.339   1.983  0.7679 -0.9641  2.4457
  277DOPC  H11B38107   2.000  10.415   2.096  1.2522 -1.5314  1.3905
  277DOPC     P38108   1.909  10.163   2.186 -0.0337  0.2827  0.0117
  277DOPC   O1338109   1.913  10.016   2.191  0.0716  0.1226  0.5259
  277DOPC   O1438110   1.784  10.233   2.223  0.6182 -0.4435 -0.2698
  277DOPC   O1238111   1.948  10.214   2.039 -0.1302  0.1817  0.1190
  277DOPC   O1138112   2.020  10.220   2.278 -0.7954  0.2994  0.0270
  277DOPC    C138113   2.092  10.115   2.357 -0.3874 -0.2173 -0.6644
  277DOPC    HA38114   2.191  10.151   2.390 -1.0695  1.4437 -0.3531
  277DOPC    HB38115   2.116  10.023   2.299  1.4042 -1.1043  1.3416
  277DOPC    C238116   2.038  10.063   2.486 -0.4323 -0.4907 -0.3162
  277DOPC    HS38117   1.951   9.996   2.466 -2.1181  1.2363  0.8650
  277DOPC   O2138118   2.001  10.174   2.563 -0.0691  0.2794 -0.7001
  277DOPC   C2138119   1.888  10.171   2.625  0.2124 -0.7402  0.4732
  277DOPC   O2238120   1.813  10.074   2.637  0.4079  0.8058 -0.4538
  277DOPC   C2238121   1.858  10.308   2.697  0.2472 -0.4427 -0.2475
  277DOPC   H2R38122   1.795  10.353   2.617 -1.0837 -3.8635 -1.3012
  277DOPC   H2S38123   1.949  10.370   2.711 -1.0594  1.3735  0.7619
  277DOPC    C338124   2.144   9.983   2.567 -0.8059 -0.5646 -0.0701
  277DOPC    HX38125   2.239  10.040   2.583 -0.6428 -0.2730 -1.9201
  277DOPC    HY38126   2.170   9.886   2.518 -1.2140 -0.7585  0.0947
  277DOPC   O3138127   2.088   9.956   2.696  0.0946 -0.6436 -0.6235
  277DOPC   C3138128   1.987   9.861   2.702 -0.5598  0.2091  0.5470
  277DOPC   O3238129   1.949   9.806   2.601 -0.6234  0.2219  0.0484
  277DOPC   C3238130   1.957   9.829   2.851  0.4540 -0.1513  0.1701
  277DOPC   H2X38131   2.038   9.866   2.918  0.8141 -2.5876  1.1664
  277DOPC   H2Y38132   1.866   9.885   2.880 -0.7801  0.3668 -3.9899
  277DOPC   C2338133   1.773  10.296   2.832  0.3199 -0.2763 -0.0070
  277DOPC   H3R38134   1.679  10.239   2.815  0.2565  0.0508 -0.8098
  277DOPC   H3S38135   1.759  10.399   2.871  1.8430 -0.0955  0.1167
  277DOPC   C2438136   1.845  10.226   2.950 -1.2186 -0.5274  0.2479
  277DOPC   H4R38137   1.941  10.275   2.974 -1.5286 -1.6494  4.5426
  277DOPC   H4S38138   1.865  10.122   2.917 -0.5208  0.0691 -1.3090
  277DOPC   C2538139   1.772  10.211   3.082 -0.5250 -0.0615  0.0024
  277DOPC   H5R38140   1.670  10.170   3.063 -0.3840 -0.0072 -0.9224
  277DOPC   H5S38141   1.763  10.314   3.123 -0.8479  0.4783 -1.3526
  277DOPC   C2638142   1.837  10.120   3.188  0.5137  0.4704  0.4204
  277DOPC   H6R38143   1.845  10.019   3.144 -1.1355  0.5566 -0.1460
  277DOPC   H6S38144   1.772  10.112   3.278  0.4501  0.8940  0.4180
  277DOPC   C2738145   1.975  10.168   3.230  0.0079  0.5359 -0.3334
  277DOPC   H7R38146   1.967  10.275   3.261  0.5419 -0.1144  2.3050
  277DOPC   H7S38147   2.047  10.168   3.145  1.8881 -0.3949  1.1988
  277DOPC   C2838148   2.018  10.094   3.357 -0.5109  0.2723 -0.2430
  277DOPC   H8R38149   1.941  10.103   3.436 -0.2341  1.7481 -0.1189
  277DOPC   H8S38150   2.107  10.143   3.403 -1.5740 -0.4468  2.8126
  277DOPC   C2938151   2.075   9.958   3.330  0.1197  0.0310 -0.5255
  277DOPC   H9R38152   2.124   9.951   3.232  0.1513 -1.6994 -0.4077
  277DOPC  C21038153   2.079   9.853   3.406  0.0187 -0.4453 -0.3867
  277DOPC  H10R38154   2.126   9.761   3.367 -0.5714 -0.1930 -1.7492
  277DOPC  C21138155   2.023   9.830   3.547 -0.5275 -1.0118  0.5828
  277DOPC  H11R38156   1.931   9.768   3.540 -1.6493  0.5954  0.5508
  277DOPC  H11S38157   1.983   9.927   3.583  1.3078  1.4961 -3.4322
  277DOPC  C21238158   2.122   9.784   3.649  0.6758  0.6349 -0.5626
  277DOPC  H12R38159   2.155   9.680   3.628  2.5711  0.8344  1.1398
  277DOPC  H12S38160   2.066   9.794   3.745  0.5943  2.1475 -0.7519
  277DOPC  C21338161   2.251   9.860   3.653 -0.0025  0.1807 -0.3908
  277DOPC  H13R38162   2.230   9.956   3.705 -0.2361 -0.0771 -0.0017
  277DOPC  H13S38163   2.304   9.873   3.556  2.4567 -1.9810  0.5350
  277DOPC  C21438164   2.352   9.788   3.749 -0.4475  0.8522  0.0664
  277DOPC  H14R38165   2.394   9.705   3.688  1.3149  1.7126  0.0576
  277DOPC  H14S38166   2.289   9.750   3.832 -0.1185 -1.5409 -0.7010
  277DOPC  C21538167   2.463   9.873   3.794 -0.1046  0.4208 -0.3322
  277DOPC  H15R38168   2.477   9.953   3.718 -0.3481 -0.1264 -0.9724
  277DOPC  H15S38169   2.560   9.823   3.816 -0.6764 -0.6977 -0.2698
  277DOPC  C21638170   2.427   9.943   3.926  0.2228 -0.3642 -0.0834
  277DOPC  H16R38171   2.325   9.986   3.916  0.4579  0.0731 -0.6715
  277DOPC  H16S38172   2.496  10.030   3.935  0.1916 -0.3069 -0.3879
  277DOPC  C21738173   2.455   9.862   4.061 -0.1376 -0.2010  0.3035
  277DOPC  H17R38174   2.549   9.803   4.055 -0.2094 -0.2207 -0.8991
  277DOPC  H17S38175   2.371   9.790   4.071 -0.9689  0.7477  0.2809
  277DOPC  C21838176   2.471   9.960   4.178  1.0520 -0.5791  0.0261
  277DOPC  H18R38177   2.432  10.061   4.155  2.1820  0.4602  2.3703
  277DOPC  H18S38178   2.581   9.970   4.192  1.0094 -0.2360  0.1321
  277DOPC  H18T38179   2.417   9.922   4.267 -2.5863  1.8166 -0.9214
  277DOPC   C3338180   1.943   9.674   2.872 -0.7432 -0.7792  0.1429
  277DOPC   H3X38181   2.042   9.622   2.869 -0.3299 -0.1243  1.8891
  277DOPC   H3Y38182   1.885   9.621   2.793 -0.3661  1.0642 -1.4383
  277DOPC   C3438183   1.883   9.640   3.002  0.0071 -0.0193  0.3328
  277DOPC   H4X38184   1.795   9.575   2.979  0.6915 -1.4244  1.4902
  277DOPC   H4Y38185   1.839   9.729   3.051 -0.8935 -0.0275 -0.4172
  277DOPC   C3538186   1.989   9.584   3.100 -0.3430  0.0513  0.6570
  277DOPC   H5X38187   2.079   9.649   3.098 -1.0254  0.9801 -0.6634
  277DOPC   H5Y38188   2.029   9.488   3.060 -1.7346 -0.1042 -0.4588
  277DOPC   C3638189   1.937   9.566   3.241  0.3377 -0.1024 -0.3458
  277DOPC   H6X38190   1.919   9.669   3.279 -0.9734 -0.1233 -0.8694
  277DOPC   H6Y38191   1.843   9.508   3.235 -0.4593  1.1263 -0.1906
  277DOPC   C3738192   2.027   9.503   3.348 -0.3492 -0.6946 -0.3435
  277DOPC   H7X38193   2.127   9.551   3.337  0.1058 -1.6127 -0.3104
  277DOPC   H7Y38194   2.001   9.553   3.443  2.3646  0.7083 -0.2272
  277DOPC   C3838195   2.029   9.349   3.353 -0.0963 -0.6206 -0.4937
  277DOPC   H8X38196   2.052   9.321   3.248  2.6718  0.9705 -0.3925
  277DOPC   H8Y38197   1.931   9.313   3.390 -0.5341  0.4288 -0.6019
  277DOPC   C3938198   2.146   9.319   3.449  0.2074 -0.1803  0.4837
  277DOPC   H9X38199   2.237   9.381   3.441 -0.9390  1.4214 -1.0638
  277DOPC  C31038200   2.140   9.233   3.552 -0.1589 -0.8664  0.1167
  277DOPC  H10X38201   2.224   9.220   3.622 -1.1786  0.8285  1.7519
  277DOPC  C31138202   2.016   9.158   3.597 -0.4810  0.0952 -0.1468
  277DOPC  H11X38203   2.050   9.061   3.639  0.4466 -0.3517 -1.8491
  277DOPC  H11Y38204   1.946   9.135   3.514 -1.6048  2.8326 -0.0508
  277DOPC  C31238205   1.938   9.232   3.699  0.2390 -0.7241 -0.4945
  277DOPC  H12X38206   1.855   9.165   3.732 -0.2986 -1.4130 -3.0694
  277DOPC  H12Y38207   1.888   9.311   3.639  0.7838 -0.8216 -1.0765
  277DOPC  C31338208   1.998   9.291   3.825  0.0772  0.2238 -1.1446
  277DOPC  H13X38209   2.106   9.319   3.816  0.3414  0.6451  2.1339
  277DOPC  H13Y38210   1.941   9.383   3.851 -2.4225 -1.7006  0.6551
  277DOPC  C31438211   1.975   9.206   3.954 -0.2710 -0.3258  0.0311
  277DOPC  H14X38212   2.003   9.259   4.047 -0.2312 -0.1373 -0.0883
  277DOPC  H14Y38213   1.867   9.179   3.961  0.0182 -2.2176 -1.8913
  277DOPC  C31538214   2.055   9.077   3.953 -0.3251 -0.2357  0.2363
  277DOPC  H15X38215   2.161   9.102   3.972 -0.0886 -0.4555 -0.7709
  277DOPC  H15Y38216   2.055   9.036   3.850 -0.2672  0.1401  0.0847
  277DOPC  C31638217   1.995   8.961   4.036  0.1558  0.6721 -0.1345
  277DOPC  H16X38218   2.067   8.878   4.054  2.5164  2.7039  0.4708
  277DOPC  H16Y38219   1.976   8.997   4.140 -2.1781  0.2502 -0.3574
  277DOPC  C31738220   1.863   8.908   3.984 -0.4648 -0.2607 -0.7653
  277DOPC  H17X38221   1.795   8.996   3.987  0.6077  0.5833 -0.2930
  277DOPC  H17Y38222   1.875   8.871   3.881 -1.1086 -0.5384 -0.7448
  277DOPC  C31838223   1.801   8.800   4.061  0.4017 -0.1516 -0.7529
  277DOPC  H18X38224   1.710   8.772   4.004  0.0999 -0.4513 -0.1340
  277DOPC  H18Y38225   1.863   8.708   4.067 -0.0845 -0.3997  3.0718
  277DOPC  H18Z38226   1.779   8.835   4.164  1.4820 -0.1492 -0.5130
  278DOPC     N38227  10.592   5.762   1.758  0.1511 -0.2854 -0.5981
  278DOPC   C1238228  10.746   5.797   1.750  0.5664  0.3582  0.4519
  278DOPC  H12A38229  10.775   5.870   1.676 -0.1079  1.1102  0.9136
  278DOPC  H12B38230  10.788   5.710   1.700 -0.6648 -0.5804  0.9781
  278DOPC   C1338231  10.570   5.630   1.823  0.8810  0.0601  0.2256
  278DOPC  H13A38232  10.604   5.634   1.925  2.8529  1.1135 -0.4304
  278DOPC  H13B38233  10.465   5.604   1.827  0.4356  1.6612 -0.2046
  278DOPC  H13C38234  10.616   5.546   1.774 -1.6379 -0.0337 -2.2455
  278DOPC   C1438235  10.543   5.753   1.618 -0.5669 -0.1857  1.2145
  278DOPC  H14A38236  10.611   5.699   1.554 -0.3133  0.4805  0.9137
  278DOPC  H14B38237  10.451   5.698   1.602  0.8225 -2.2298 -0.1962
  278DOPC  H14C38238  10.513   5.849   1.579  0.6726  0.1979  1.1904
  278DOPC   C1538239  10.507   5.861   1.827  0.2592  0.2941 -0.7342
  278DOPC  H15A38240  10.545   5.865   1.927 -0.8994 -0.6412 -0.2164
  278DOPC  H15B38241  10.400   5.841   1.824 -0.0289  0.9997  2.1360
  278DOPC  H15C38242  10.528   5.955   1.778  0.8377  0.9789  0.7934
  278DOPC   C1138243  10.823   5.829   1.879  0.5074 -0.0059  0.5844
  278DOPC  H11A38244  10.800   5.752   1.956 -0.0087  2.4639  3.0640
  278DOPC  H11B38245  10.930   5.819   1.851  0.9453 -1.3806  2.5318
  278DOPC     P38246  10.855   6.081   1.863  0.1569  0.4025 -0.0158
  278DOPC   O1338247  10.767   6.198   1.879 -0.7644  0.3711  0.4264
  278DOPC   O1438248  10.902   6.051   1.726 -0.1765 -0.5487  0.3166
  278DOPC   O1238249  10.788   5.963   1.926  0.5198  1.0008  0.6745
  278DOPC   O1138250  10.978   6.109   1.955 -0.1201  0.1486 -0.6390
  278DOPC    C138251  11.008   6.042   2.077 -0.6493 -0.1140 -0.2703
  278DOPC    HA38252  11.103   5.987   2.061  0.7561  1.6854  1.4358
  278DOPC    HB38253  10.925   5.977   2.115 -0.7769  0.2027  0.0024
  278DOPC    C238254  11.041   6.145   2.186 -0.6446 -0.0037  0.1111
  278DOPC    HS38255  11.142   6.183   2.161  1.0834 -2.9059  2.0770
  278DOPC   O2138256  11.048   6.075   2.310  0.3971 -0.0140 -0.2611
  278DOPC   C2138257  11.170   6.059   2.356 -0.8078  0.1165  0.2018
  278DOPC   O2238258  11.270   6.081   2.295  0.1394  0.1518  0.0593
  278DOPC   C2238259  11.176   5.980   2.489  0.4108 -0.5117  0.1045
  278DOPC   H2R38260  11.210   5.876   2.473  2.0625 -0.0755  0.6077
  278DOPC   H2S38261  11.075   5.984   2.534 -0.2353  0.1136 -1.3433
  278DOPC    C338262  10.945   6.265   2.190  0.1452  0.1064  0.3092
  278DOPC    HX38263  10.843   6.222   2.203 -0.0346  0.7047  0.9036
  278DOPC    HY38264  10.957   6.313   2.090  0.4811  0.9970  0.7666
  278DOPC   O3138265  10.976   6.354   2.300 -0.2300 -0.1333  0.3534
  278DOPC   C3138266  11.048   6.459   2.263 -0.3130 -0.2133 -0.1297
  278DOPC   O3238267  11.097   6.477   2.151  0.5319 -0.2540  0.0295
  278DOPC   C3238268  11.082   6.554   2.387 -0.1497  0.1194  0.4246
  278DOPC   H2X38269  11.136   6.641   2.345  2.1727 -1.8399 -0.9032
  278DOPC   H2Y38270  10.991   6.578   2.446 -0.4837  0.0993 -0.0737
  278DOPC   C2338271  11.277   6.049   2.582  0.1720 -0.0170  0.1525
  278DOPC   H3R38272  11.258   6.158   2.590 -2.0485 -0.2897 -0.6721
  278DOPC   H3S38273  11.381   6.034   2.545 -0.3156  1.1079 -1.8565
  278DOPC   C2438274  11.273   5.980   2.720 -0.1212 -0.0172 -0.0774
  278DOPC   H4R38275  11.270   5.871   2.697  0.8579 -0.0394 -0.1452
  278DOPC   H4S38276  11.177   6.015   2.764  0.5574 -1.0801  2.3709
  278DOPC   C2538277  11.391   6.016   2.809  0.3180  0.1452 -0.2055
  278DOPC   H5R38278  11.403   6.126   2.798  0.3444  0.3761  1.8273
  278DOPC   H5S38279  11.481   5.975   2.758  0.1400 -0.9569  0.3405
  278DOPC   C2638280  11.381   5.971   2.953 -0.4788  0.5603  1.0478
  278DOPC   H6R38281  11.481   5.948   2.994 -0.3042 -1.5996 -0.4294
  278DOPC   H6S38282  11.331   5.872   2.943 -1.8121  1.0099  2.7500
  278DOPC   C2738283  11.302   6.061   3.049 -0.5112  0.3917 -0.8491
  278DOPC   H7R38284  11.199   6.080   3.012 -0.5893  2.0196  0.0836
  278DOPC   H7S38285  11.340   6.166   3.048 -1.1856  0.8904  3.4037
  278DOPC   C2838286  11.312   6.004   3.193  0.3059 -0.4573 -0.6546
  278DOPC   H8R38287  11.284   5.896   3.193  1.0562 -0.7163  1.9998
  278DOPC   H8S38288  11.228   6.054   3.245  0.3423  0.0270 -1.0486
  278DOPC   C2938289  11.447   6.015   3.256  0.1891 -1.3501  0.0881
  278DOPC   H9R38290  11.523   5.993   3.180  0.3703 -0.2007 -0.0830
  278DOPC  C21038291  11.471   6.053   3.382  0.5700 -0.5999 -0.1514
  278DOPC  H10R38292  11.574   6.063   3.418  1.2620 -0.8773 -1.9555
  278DOPC  C21138293  11.370   6.114   3.473 -0.3452 -0.1460 -0.8976
  278DOPC  H11R38294  11.265   6.085   3.453 -0.4350  0.5539 -1.4870
  278DOPC  H11S38295  11.361   6.223   3.449  0.8714  0.4085  0.9533
  278DOPC  C21238296  11.409   6.117   3.624 -0.1849  0.0203  0.2992
  278DOPC  H12R38297  11.499   6.182   3.636 -0.9956  1.5264 -1.2466
  278DOPC  H12S38298  11.448   6.017   3.650  1.9967 -0.1073 -2.8228
  278DOPC  C21338299  11.300   6.166   3.714 -0.5286  0.2395  0.3203
  278DOPC  H13R38300  11.213   6.098   3.711 -0.0957 -0.4760  2.3326
  278DOPC  H13S38301  11.275   6.272   3.691 -0.9862  0.0312 -0.1625
  278DOPC  C21438302  11.334   6.160   3.864 -0.2756 -0.4252 -0.0843
  278DOPC  H14R38303  11.335   6.056   3.903 -0.5431 -0.4102 -0.0376
  278DOPC  H14S38304  11.254   6.214   3.920  1.1437  1.0949  0.5880
  278DOPC  C21538305  11.471   6.229   3.890  0.6350 -0.2213  0.1330
  278DOPC  H15R38306  11.451   6.334   3.857  0.3232 -0.5236 -0.6754
  278DOPC  H15S38307  11.557   6.178   3.841  0.1661  1.1456 -2.3244
  278DOPC  C21638308  11.503   6.236   4.041 -0.2279  0.0627  0.2526
  278DOPC  H16R38309  11.498   6.133   4.083 -2.3729  0.5507  1.3274
  278DOPC  H16S38310  11.419   6.279   4.099  0.3458  0.1419  1.0476
  278DOPC  C21738311  11.633   6.307   4.088  0.8569  1.1190  0.4615
  278DOPC  H17R38312  11.714   6.263   4.027  0.0555 -0.9330  0.7837
  278DOPC  H17S38313  11.652   6.286   4.196  1.3776 -0.5285  0.0733
  278DOPC  C21838314  11.633   6.453   4.083 -0.2712 -0.1815 -0.0188
  278DOPC  H18R38315  11.650   6.485   3.978 -0.6190  1.0884  0.2900
  278DOPC  H18S38316  11.723   6.491   4.136  0.7455 -2.5791  0.0815
  278DOPC  H18T38317  11.546   6.494   4.138  0.1289  3.0371 -1.5250
  278DOPC   C3338318  11.180   6.478   2.477  0.3416 -0.1451 -0.4183
  278DOPC   H3X38319  11.277   6.452   2.429  1.7234  2.1666  0.9298
  278DOPC   H3Y38320  11.134   6.380   2.497 -1.0579  0.2885 -1.3660
  278DOPC   C3438321  11.222   6.552   2.605  0.4454 -0.4276 -0.2076
  278DOPC   H4X38322  11.121   6.577   2.645 -0.4389  0.4045 -2.7700
  278DOPC   H4Y38323  11.274   6.647   2.577 -0.1017  0.8355  2.6764
  278DOPC   C3538324  11.313   6.471   2.693 -0.8091 -0.1555 -0.3525
  278DOPC   H5X38325  11.410   6.455   2.641 -1.0567  0.5633 -1.0717
  278DOPC   H5Y38326  11.267   6.371   2.708 -1.0609  0.1372  0.8753
  278DOPC   C3638327  11.324   6.545   2.825 -0.4359  0.5563  0.1892
  278DOPC   H6X38328  11.370   6.646   2.816  0.2148  0.1825 -0.8259
  278DOPC   H6Y38329  11.224   6.571   2.864  0.6408  2.4269  1.8647
  278DOPC   C3738330  11.396   6.462   2.928  0.3136 -0.0654  1.1026
  278DOPC   H7X38331  11.375   6.354   2.918  0.8641 -0.1332  0.6628
  278DOPC   H7Y38332  11.505   6.459   2.909  0.1043 -0.4140 -0.1299
  278DOPC   C3838333  11.365   6.506   3.073 -0.2194  0.1591 -0.5180
  278DOPC   H8X38334  11.257   6.516   3.094 -0.5056 -1.8058 -0.8656
  278DOPC   H8Y38335  11.420   6.602   3.086  0.0775 -0.1420  0.6072
  278DOPC   C3938336  11.430   6.411   3.179  0.6187  0.4179  0.5461
  278DOPC   H9X38337  11.440   6.305   3.151  3.4095  0.4013  1.3288
  278DOPC  C31038338  11.481   6.452   3.295 -0.1225 -0.3798  0.0850
  278DOPC  H10X38339  11.510   6.371   3.364 -0.6307 -0.7291 -0.1005
  278DOPC  C31138340  11.472   6.597   3.362 -0.6432  0.0892  0.2128
  278DOPC  H11X38341  11.405   6.666   3.307 -1.4039 -1.1643 -0.4895
  278DOPC  H11Y38342  11.569   6.649   3.350 -0.4252 -0.5357 -0.9693
  278DOPC  C31238343  11.427   6.579   3.503 -0.3092 -0.5286 -0.3749
  278DOPC  H12X38344  11.497   6.513   3.558 -0.8597 -0.3378  0.5767
  278DOPC  H12Y38345  11.328   6.532   3.520 -1.0891  1.8122  2.2806
  278DOPC  C31338346  11.428   6.712   3.580  0.3274 -0.1795  0.4456
  278DOPC  H13X38347  11.523   6.767   3.564 -0.0658 -0.1795 -2.3773
  278DOPC  H13Y38348  11.343   6.776   3.547  0.6390  0.6052  1.1150
  278DOPC  C31438349  11.408   6.686   3.730 -0.5006 -0.7680  0.2778
  278DOPC  H14X38350  11.315   6.631   3.753 -1.7279  0.0876 -2.2109
  278DOPC  H14Y38351  11.487   6.611   3.749 -0.8322 -1.4378 -0.9040
  278DOPC  C31538352  11.430   6.817   3.809 -0.7793  0.3635 -0.0883
  278DOPC  H15X38353  11.346   6.886   3.784 -0.8512  0.9210  1.5378
  278DOPC  H15Y38354  11.528   6.854   3.774 -0.0140  1.2646  2.7437
  278DOPC  C31638355  11.451   6.797   3.962 -0.0738 -0.0322 -0.3789
  278DOPC  H16X38356  11.523   6.714   3.979  0.7523  0.5664 -0.8605
  278DOPC  H16Y38357  11.510   6.885   3.999 -0.0631 -0.9650  2.0126
  278DOPC  C31738358  11.327   6.779   4.054  0.9301 -0.2825 -0.4736
  278DOPC  H17X38359  11.290   6.676   4.033  1.0621 -0.2356 -0.9476
  278DOPC  H17Y38360  11.355   6.798   4.160 -1.3916 -0.8729  0.3041
  278DOPC  C31838361  11.218   6.879   4.008  0.3387 -0.6062 -0.9954
  278DOPC  H18X38362  11.249   6.986   4.010  2.4070 -1.1698  0.7329
  278DOPC  H18Y38363  11.178   6.848   3.909 -0.3777  2.0048 -1.6146
  278DOPC  H18Z38364  11.133   6.872   4.080 -0.9397 -2.1403 -2.5700
  279DOPC     N38365   6.542   3.381   2.099 -0.4836  0.8601 -0.2229
  279DOPC   C1238366   6.488   3.281   2.197  0.3007 -0.1573 -0.2013
  279DOPC  H12A38367   6.498   3.188   2.143 -1.2614  0.5836 -1.8890
  279DOPC  H12B38368   6.385   3.310   2.209 -0.5354 -3.0532  0.4751
  279DOPC   C1338369   6.458   3.365   1.975 -0.1072 -0.1823  0.0730
  279DOPC  H13A38370   6.361   3.409   1.989  0.2143  1.0460 -1.3163
  279DOPC  H13B38371   6.495   3.420   1.889 -0.0579 -0.3998 -0.0470
  279DOPC  H13C38372   6.442   3.262   1.946 -1.6302  0.3003 -0.9084
  279DOPC   C1438373   6.686   3.359   2.060  0.0284  0.0229 -0.4471
  279DOPC  H14A38374   6.720   3.424   1.981  1.4318 -0.2383 -0.0892
  279DOPC  H14B38375   6.744   3.370   2.150 -0.8709 -1.8346  0.4195
  279DOPC  H14C38376   6.703   3.262   2.013  1.3406 -0.1121  0.2411
  279DOPC   C1538377   6.541   3.520   2.146  0.4187 -0.1597  0.5156
  279DOPC  H15A38378   6.617   3.535   2.221  0.6491  1.9974 -0.0791
  279DOPC  H15B38379   6.448   3.550   2.192  0.5834 -0.4912  1.0671
  279DOPC  H15C38380   6.552   3.597   2.070 -0.3361  0.6878  1.2486
  279DOPC   C1138381   6.557   3.265   2.343 -0.0696 -0.7648  0.4401
  279DOPC  H11A38382   6.557   3.363   2.395  1.8981 -0.5330  0.0410
  279DOPC  H11B38383   6.493   3.198   2.405 -0.0190 -1.5609 -0.3460
  279DOPC     P38384   6.715   3.065   2.313 -0.1545  0.4030 -0.0249
  279DOPC   O1338385   6.865   3.050   2.292  0.2893  0.1401 -0.4632
  279DOPC   O1438386   6.629   3.020   2.201 -0.6937  0.0853 -0.4665
  279DOPC   O1238387   6.693   3.221   2.339  0.2119 -0.3513  0.0651
  279DOPC   O1138388   6.674   2.986   2.439  0.2340 -0.3931 -0.3594
  279DOPC    C138389   6.662   3.041   2.567  0.3453 -0.2310 -0.0939
  279DOPC    HA38390   6.583   2.981   2.617  0.2721  0.5297  0.7271
  279DOPC    HB38391   6.643   3.151   2.563  2.7927  0.2279 -1.1283
  279DOPC    C238392   6.790   3.031   2.642 -0.0209 -0.5693 -0.2877
  279DOPC    HS38393   6.865   3.093   2.589  0.3689 -0.1576  0.7358
  279DOPC   O2138394   6.843   2.892   2.646  0.1376 -0.0376 -0.0535
  279DOPC   C2138395   6.966   2.880   2.694 -0.1699 -0.1160  0.5658
  279DOPC   O2238396   7.041   2.971   2.716  0.4157 -0.9012 -0.1143
  279DOPC   C2238397   7.003   2.732   2.722  0.6508 -0.6195 -0.5743
  279DOPC   H2R38398   7.112   2.715   2.736  0.3841 -2.0048 -0.0213
  279DOPC   H2S38399   6.972   2.666   2.638 -0.0954 -1.8960  0.6570
  279DOPC    C338400   6.762   3.071   2.795  0.6025 -0.0944 -0.7306
  279DOPC    HX38401   6.861   3.064   2.846 -0.8404 -2.6779  1.9539
  279DOPC    HY38402   6.698   2.994   2.841  1.1104 -0.8019 -1.1894
  279DOPC   O3138403   6.692   3.195   2.813  0.5406 -0.6761  0.4709
  279DOPC   C3138404   6.775   3.303   2.820  0.3611  0.4620 -0.3443
  279DOPC   O3238405   6.894   3.298   2.808  0.3381 -0.2243  0.2403
  279DOPC   C3238406   6.689   3.421   2.846 -0.3992  0.5715  1.3352
  279DOPC   H2X38407   6.752   3.509   2.823  0.8916  0.2466  3.4194
  279DOPC   H2Y38408   6.604   3.402   2.777  1.3185 -1.6065 -0.3515
  279DOPC   C2338409   6.924   2.675   2.845  0.1295  0.2918  0.1540
  279DOPC   H3R38410   6.907   2.566   2.848 -0.6397  0.3484 -1.2826
  279DOPC   H3S38411   6.819   2.705   2.830 -0.7676 -2.1287  1.0738
  279DOPC   C2438412   6.991   2.698   2.982 -0.2957  0.2872 -0.5963
  279DOPC   H4R38413   7.090   2.647   2.980  0.6575  2.0447  0.0333
  279DOPC   H4S38414   6.939   2.641   3.062 -0.3347 -0.3620 -1.0731
  279DOPC   C2538415   7.013   2.845   3.036 -0.3893  0.1190  0.6990
  279DOPC   H5R38416   7.043   2.922   2.962  2.2895 -1.4185  0.0620
  279DOPC   H5S38417   7.100   2.838   3.104  0.6591 -0.8760 -0.7025
  279DOPC   C2638418   6.894   2.894   3.120 -0.7133  0.2866  0.7826
  279DOPC   H6R38419   6.857   2.810   3.183 -1.5518  0.6910  0.8415
  279DOPC   H6S38420   6.811   2.922   3.051 -0.4973  1.0588  0.8261
  279DOPC   C2738421   6.926   3.010   3.207  0.6053 -0.8057 -1.0251
  279DOPC   H7R38422   6.960   3.096   3.145  0.1748  2.1071  2.4228
  279DOPC   H7S38423   7.014   2.977   3.268  0.9743  1.8619  0.0414
  279DOPC   C2838424   6.822   3.053   3.308  0.5137  0.1388  0.4554
  279DOPC   H8R38425   6.875   3.124   3.374  0.2356  1.5833 -0.8321
  279DOPC   H8S38426   6.793   2.975   3.382 -0.4511  0.9783  0.9884
  279DOPC   C2938427   6.696   3.109   3.245 -0.4660  0.4569 -0.4725
  279DOPC   H9R38428   6.663   3.048   3.160  0.1987  0.3132 -0.6330
  279DOPC  C21038429   6.620   3.211   3.288 -0.7322  0.1862  0.1893
  279DOPC  H10R38430   6.540   3.244   3.221  1.4225  1.7396 -1.7560
  279DOPC  C21138431   6.646   3.300   3.415  0.3945  0.2530  0.3262
  279DOPC  H11R38432   6.623   3.406   3.394  1.0984  0.5202  0.8865
  279DOPC  H11S38433   6.748   3.298   3.459  1.4264  1.6678 -1.8493
  279DOPC  C21238434   6.564   3.258   3.537 -0.1125 -0.1666 -0.1148
  279DOPC  H12R38435   6.586   3.334   3.615  1.7479 -0.4459 -0.3423
  279DOPC  H12S38436   6.601   3.164   3.583 -0.7504 -0.7633 -0.7851
  279DOPC  C21338437   6.413   3.263   3.514 -0.2328 -0.1636 -0.2664
  279DOPC  H13R38438   6.385   3.176   3.451  0.5284  0.0396 -0.8985
  279DOPC  H13S38439   6.399   3.357   3.457  1.5238 -0.9071 -2.0336
  279DOPC  C21438440   6.329   3.263   3.639 -0.3504 -0.2002 -0.1394
  279DOPC  H14R38441   6.352   3.350   3.704 -2.3079 -0.7157  1.3301
  279DOPC  H14S38442   6.358   3.168   3.689 -2.1515 -0.2797  0.8569
  279DOPC  C21538443   6.181   3.258   3.605  0.2893  0.3213 -0.8606
  279DOPC  H15R38444   6.168   3.168   3.541  3.4943 -0.1049 -1.1043
  279DOPC  H15S38445   6.140   3.341   3.545 -2.4363 -0.3322 -0.0223
  279DOPC  C21638446   6.090   3.240   3.723 -0.0487 -0.9274 -0.6059
  279DOPC  H16R38447   6.135   3.164   3.790  0.4415  0.4244  0.6652
  279DOPC  H16S38448   5.994   3.194   3.690 -1.0143 -0.2425  1.1341
  279DOPC  C21738449   6.058   3.371   3.786  1.0610 -0.2576 -0.1289
  279DOPC  H17R38450   5.996   3.427   3.714  0.1426 -0.0079  0.8298
  279DOPC  H17S38451   6.146   3.437   3.802 -0.3377  1.4261  0.8479
  279DOPC  C21838452   5.980   3.357   3.920  0.1651 -0.1977  0.1223
  279DOPC  H18R38453   5.968   3.452   3.977 -0.4072 -1.4109  2.1342
  279DOPC  H18S38454   6.027   3.280   3.986  2.4906 -0.4475 -1.6906
  279DOPC  H18T38455   5.879   3.315   3.903  0.4698 -1.0808  0.4346
  279DOPC   C3338456   6.650   3.442   2.996  0.1304 -0.8730 -0.3671
  279DOPC   H3X38457   6.745   3.433   3.055  0.6979  2.0147 -0.6892
  279DOPC   H3Y38458   6.570   3.373   3.029 -1.0254  0.9918  0.9124
  279DOPC   C3438459   6.605   3.589   3.027 -0.2089 -0.2270  0.3322
  279DOPC   H4X38460   6.574   3.596   3.133  1.7634 -0.0458  0.9457
  279DOPC   H4Y38461   6.511   3.597   2.968  1.0204 -1.1853 -1.9023
  279DOPC   C3538462   6.697   3.702   2.995  0.0517 -0.5687 -0.0358
  279DOPC   H5X38463   6.644   3.793   3.028 -0.6948 -1.1501  0.3959
  279DOPC   H5Y38464   6.698   3.709   2.884 -0.3748 -0.5260 -0.0362
  279DOPC   C3638465   6.834   3.693   3.056 -0.5052  0.5384  0.2783
  279DOPC   H6X38466   6.837   3.626   3.145  0.3782 -2.0050 -1.5429
  279DOPC   H6Y38467   6.911   3.652   2.986 -1.4041 -1.1230  0.2089
  279DOPC   C3738468   6.878   3.837   3.093 -0.0590  0.3761  0.6346
  279DOPC   H7X38469   6.853   3.892   3.000  0.8698 -0.7341 -0.2935
  279DOPC   H7Y38470   6.805   3.876   3.168 -0.1192  1.4772  0.0223
  279DOPC   C3838471   7.026   3.850   3.129  0.2416 -0.2535 -0.1666
  279DOPC   H8X38472   7.040   3.956   3.159  0.1021 -0.6042  1.2100
  279DOPC   H8Y38473   7.081   3.835   3.034 -1.5669  1.1591 -1.4891
  279DOPC   C3938474   7.068   3.752   3.242 -0.2281  0.0767 -0.2974
  279DOPC   H9X38475   6.999   3.668   3.256 -1.7910  1.3024 -0.3932
  279DOPC  C31038476   7.166   3.763   3.332  0.1298 -0.1999 -0.2227
  279DOPC  H10X38477   7.194   3.673   3.390  0.5587  1.2920  2.0407
  279DOPC  C31138478   7.264   3.872   3.344 -0.3185  0.3033  0.2249
  279DOPC  H11X38479   7.338   3.875   3.261  1.7305  2.5180  1.9915
  279DOPC  H11Y38480   7.332   3.858   3.431  0.0288  1.3415  0.1406
  279DOPC  C31238481   7.215   4.021   3.360 -0.1431 -0.2524  0.7670
  279DOPC  H12X38482   7.195   4.067   3.261  0.0412 -1.2913  0.2322
  279DOPC  H12Y38483   7.299   4.085   3.394  0.4658 -0.5272 -0.1524
  279DOPC  C31338484   7.094   4.039   3.442  0.8538  0.0816 -0.3430
  279DOPC  H13X38485   7.064   4.143   3.418  1.1340 -0.4740 -3.4732
  279DOPC  H13Y38486   7.009   3.975   3.410  1.4723 -1.0597  0.2270
  279DOPC  C31438487   7.114   4.048   3.594 -0.3320 -0.8090  0.0942
  279DOPC  H14X38488   7.140   3.952   3.642 -1.0063 -1.8007 -1.4466
  279DOPC  H14Y38489   7.207   4.108   3.606 -0.4275 -0.3347 -1.3008
  279DOPC  C31538490   6.991   4.105   3.671  0.5447  0.2537  0.3638
  279DOPC  H15X38491   6.910   4.033   3.646  0.5822  0.4122 -0.2229
  279DOPC  H15Y38492   6.960   4.198   3.620 -0.3629 -0.6161 -0.7268
  279DOPC  C31638493   7.001   4.119   3.817  0.1653 -0.3262 -0.3674
  279DOPC  H16X38494   6.993   4.022   3.871 -1.2859  0.3684  0.7255
  279DOPC  H16Y38495   7.099   4.167   3.834  0.1969 -0.3380 -0.5124
  279DOPC  C31738496   6.898   4.203   3.886  0.0651  0.0784 -0.2503
  279DOPC  H17X38497   6.802   4.151   3.872  0.4799 -1.0616  0.9019
  279DOPC  H17Y38498   6.911   4.213   3.996 -1.1055 -3.5566  0.3416
  279DOPC  C31838499   6.887   4.349   3.845  0.1532  0.1807 -0.2961
  279DOPC  H18X38500   6.843   4.416   3.921  1.2788  1.5416 -0.8160
  279DOPC  H18Y38501   6.990   4.388   3.835  0.8143 -0.5810  2.5725
  279DOPC  H18Z38502   6.826   4.358   3.753 -3.1988  0.9237  1.8223
  280DOPC     N38503   8.839   8.731   1.685  0.4670  0.4749 -0.3473
  280DOPC   C1238504   8.879   8.746   1.829 -0.4505 -0.2068 -0.1792
  280DOPC  H12A38505   8.942   8.833   1.841  1.2506 -1.1629 -1.6550
  280DOPC  H12B38506   8.947   8.669   1.862  0.3534  0.9640  0.9974
  280DOPC   C1338507   8.743   8.623   1.669  0.1374  0.5408 -0.0565
  280DOPC  H13A38508   8.648   8.644   1.715 -0.5978 -0.7887 -0.9075
  280DOPC  H13B38509   8.721   8.610   1.565  1.4009  0.6222 -0.3514
  280DOPC  H13C38510   8.784   8.527   1.699 -1.3500  0.4903  2.0561
  280DOPC   C1438511   8.957   8.717   1.600  0.2405  0.5265 -0.0900
  280DOPC  H14A38512   9.022   8.803   1.598  1.0788 -0.0303 -3.5872
  280DOPC  H14B38513   9.024   8.637   1.627  0.3786  0.6865  0.0440
  280DOPC  H14C38514   8.931   8.704   1.496  1.9800  1.0210 -0.6293
  280DOPC   C1538515   8.771   8.856   1.641 -0.0463 -0.1031 -0.3900
  280DOPC  H15A38516   8.720   8.842   1.546 -2.1887  0.7322  0.5629
  280DOPC  H15B38517   8.834   8.943   1.640  0.3703 -0.3416 -3.2883
  280DOPC  H15C38518   8.688   8.873   1.708 -0.8131  1.1135 -1.5896
  280DOPC   C1138519   8.767   8.752   1.942 -0.0830 -0.3079  0.7672
  280DOPC  H11A38520   8.715   8.655   1.926  1.5116 -1.1253  0.3843
  280DOPC  H11B38521   8.810   8.751   2.045  0.1798  2.5101  0.7654
  280DOPC     P38522   8.573   8.883   2.045  0.1693 -0.0435 -0.3722
  280DOPC   O1338523   8.473   8.777   2.038 -0.0112  0.2977 -0.1829
  280DOPC   O1438524   8.524   9.019   2.016 -0.0433  0.5558 -0.0026
  280DOPC   O1238525   8.685   8.872   1.933 -0.3508  0.3841 -0.1631
  280DOPC   O1138526   8.651   8.879   2.183 -0.1910 -0.2876 -0.6873
  280DOPC    C138527   8.581   8.901   2.311  0.0082  0.0598  0.0515
  280DOPC    HA38528   8.473   8.874   2.304 -0.0204  0.4801 -1.3981
  280DOPC    HB38529   8.596   9.011   2.317  1.9420 -0.2116  1.0611
  280DOPC    C238530   8.645   8.821   2.422  0.3833  0.8507  0.2409
  280DOPC    HS38531   8.602   8.718   2.427 -1.2394  1.4300 -0.9961
  280DOPC   O2138532   8.625   8.893   2.542 -0.1272  0.0514 -0.3152
  280DOPC   C2138533   8.499   8.896   2.585 -0.3050 -0.2067  0.0358
  280DOPC   O2238534   8.403   8.840   2.542  0.0155  0.3393 -0.0782
  280DOPC   C2238535   8.489   9.006   2.688  0.2244  0.2277  0.4448
  280DOPC   H2R38536   8.382   9.004   2.718  0.3818  2.7320  1.3864
  280DOPC   H2S38537   8.508   9.096   2.627  0.4022 -0.2405 -0.2034
  280DOPC    C338538   8.794   8.809   2.404 -0.5019  0.4083  0.2234
  280DOPC    HX38539   8.831   8.911   2.380 -2.3329  0.9291 -0.5270
  280DOPC    HY38540   8.817   8.741   2.319 -0.6227 -1.0728  1.3328
  280DOPC   O3138541   8.870   8.743   2.517 -0.0230  0.1154 -0.1793
  280DOPC   C3138542   8.925   8.820   2.605  1.1935  0.4913 -0.3406
  280DOPC   O3238543   8.936   8.942   2.601 -0.1241  0.6525 -0.1803
  280DOPC   C3238544   8.956   8.731   2.719  0.0091 -0.4872  0.4477
  280DOPC   H2X38545   8.881   8.650   2.729 -0.2891 -0.3609 -0.6402
  280DOPC   H2Y38546   9.049   8.673   2.699  0.0576 -0.2542 -0.0042
  280DOPC   C2338547   8.581   8.990   2.810  0.2627  0.0913 -0.4940
  280DOPC   H3R38548   8.684   8.962   2.781 -0.4732 -3.3168 -0.2093
  280DOPC   H3S38549   8.535   8.907   2.868  0.1233  0.8070  0.4482
  280DOPC   C2438550   8.572   9.118   2.902 -0.3509 -0.1486  0.0231
  280DOPC   H4R38551   8.621   9.103   3.000 -1.3780 -1.6085  0.3449
  280DOPC   H4S38552   8.464   9.132   2.925 -0.9227  1.2648 -2.9905
  280DOPC   C2538553   8.628   9.249   2.851  0.3232  0.1018  0.2196
  280DOPC   H5R38554   8.570   9.267   2.758 -0.3141 -1.4830  0.2878
  280DOPC   H5S38555   8.735   9.242   2.822  0.5770  0.5024  1.0171
  280DOPC   C2638556   8.598   9.367   2.960 -0.6756 -0.2719 -0.2030
  280DOPC   H6R38557   8.494   9.401   2.944 -0.7947  0.6100  2.0866
  280DOPC   H6S38558   8.655   9.454   2.919  0.0003 -1.8580 -2.9425
  280DOPC   C2738559   8.621   9.325   3.106  0.1963 -0.3390 -0.4245
  280DOPC   H7R38560   8.719   9.273   3.114  0.9839  0.9278 -1.5308
  280DOPC   H7S38561   8.553   9.249   3.151  1.1362 -0.6547  0.5084
  280DOPC   C2838562   8.631   9.446   3.206  0.7636  0.0132 -0.0219
  280DOPC   H8R38563   8.536   9.502   3.209  0.7645 -0.0299  1.7753
  280DOPC   H8S38564   8.706   9.512   3.158 -2.0601  2.3926 -1.4781
  280DOPC   C2938565   8.673   9.390   3.342 -0.1422  0.0270 -0.0726
  280DOPC   H9R38566   8.774   9.345   3.344 -0.6334 -1.2113 -1.2766
  280DOPC  C21038567   8.587   9.369   3.444 -0.7059 -0.8537 -0.4786
  280DOPC  H10R38568   8.626   9.317   3.533  2.2287  0.6998 -0.7253
  280DOPC  C21138569   8.449   9.417   3.456  0.1890  0.1616 -0.4827
  280DOPC  H11R38570   8.418   9.486   3.375  1.8993 -0.1012 -1.4105
  280DOPC  H11S38571   8.437   9.468   3.554  0.7057 -0.2473 -0.2021
  280DOPC  C21238572   8.342   9.306   3.452  0.1942 -0.3962  0.0632
  280DOPC  H12R38573   8.372   9.236   3.533  0.0290 -0.4679  0.0627
  280DOPC  H12S38574   8.355   9.247   3.359 -0.6993  0.0502 -0.3503
  280DOPC  C21338575   8.201   9.359   3.475 -0.2007 -0.5009  0.3851
  280DOPC  H13R38576   8.165   9.430   3.397 -1.4367  0.5437  1.8355
  280DOPC  H13S38577   8.195   9.417   3.570  1.8921 -0.6749  0.6673
  280DOPC  C21438578   8.099   9.249   3.480  0.0713 -1.1061 -0.1630
  280DOPC  H14R38579   8.146   9.169   3.540  1.4664 -0.4381 -0.3153
  280DOPC  H14S38580   8.073   9.207   3.380  1.1708 -2.6439  0.1561
  280DOPC  C21538581   7.962   9.286   3.549  0.5425  0.9073  0.1677
  280DOPC  H15R38582   7.909   9.379   3.519 -0.4061  0.5210  0.5906
  280DOPC  H15S38583   7.971   9.314   3.656  1.3063  0.2573  0.2768
  280DOPC  C21638584   7.857   9.177   3.546 -0.2792  0.1720  0.6182
  280DOPC  H16R38585   7.834   9.154   3.439 -0.0408 -1.2593  0.8593
  280DOPC  H16S38586   7.771   9.227   3.595  0.0321 -0.3677  1.7502
  280DOPC  C21738587   7.904   9.060   3.634  0.0530 -0.0257 -0.3083
  280DOPC  H17R38588   7.944   9.111   3.725 -1.5906  0.7728  0.0040
  280DOPC  H17S38589   7.971   9.001   3.568 -2.7085  1.3095 -4.7455
  280DOPC  C21838590   7.782   8.966   3.662 -0.2406 -0.5071 -0.2240
  280DOPC  H18R38591   7.703   9.033   3.701  0.4467 -0.2734  0.8270
  280DOPC  H18S38592   7.802   8.888   3.738 -0.7228 -1.3830 -0.9876
  280DOPC  H18T38593   7.736   8.921   3.572  1.0422 -1.4007 -0.4604
  280DOPC   C3338594   8.963   8.810   2.856  0.1177  0.7164 -0.2835
  280DOPC   H3X38595   8.871   8.868   2.876 -1.3917 -1.1654 -1.4517
  280DOPC   H3Y38596   9.053   8.874   2.842 -0.1832  0.8308 -1.8785
  280DOPC   C3438597   8.994   8.714   2.973 -0.2034 -0.4334 -0.1983
  280DOPC   H4X38598   9.078   8.645   2.950  0.7513  0.6499 -0.0371
  280DOPC   H4Y38599   8.904   8.653   2.993 -0.8213 -0.4613 -2.7632
  280DOPC   C3538600   9.031   8.798   3.097 -0.0994 -0.0325 -0.2599
  280DOPC   H5X38601   8.940   8.850   3.134 -0.8175 -1.5303  0.1603
  280DOPC   H5Y38602   9.097   8.877   3.056 -0.0061  0.8547  1.5378
  280DOPC   C3638603   9.104   8.734   3.221 -0.2001 -0.0304 -0.1556
  280DOPC   H6X38604   9.170   8.648   3.198 -0.5301 -0.3280 -0.0040
  280DOPC   H6Y38605   9.170   8.806   3.273  0.0357 -1.1119  1.0704
  280DOPC   C3738606   9.004   8.677   3.320  0.3509 -0.0400 -0.4438
  280DOPC   H7X38607   8.913   8.739   3.330 -1.4178 -2.1848 -2.2831
  280DOPC   H7Y38608   8.970   8.574   3.296  0.3191 -0.1970  0.2431
  280DOPC   C3838609   9.053   8.667   3.463 -0.3706  0.5323 -0.2235
  280DOPC   H8X38610   9.088   8.769   3.490  0.4883  0.3387 -0.5618
  280DOPC   H8Y38611   9.140   8.598   3.454 -0.7407  0.1756 -1.2639
  280DOPC   C3938612   8.948   8.617   3.546  0.2019 -0.2681 -0.4016
  280DOPC   H9X38613   8.903   8.523   3.510 -0.3211 -0.4633  0.7329
  280DOPC  C31038614   8.898   8.664   3.660  0.0228 -0.1809 -0.9526
  280DOPC  H10X38615   8.808   8.613   3.697 -0.1327  0.2513 -0.7345
  280DOPC  C31138616   8.941   8.778   3.742 -0.3160  0.4756 -0.2251
  280DOPC  H11X38617   9.048   8.754   3.759  0.1472  0.7652 -2.4129
  280DOPC  H11Y38618   8.885   8.789   3.837 -0.7906  2.3754 -0.6913
  280DOPC  C31238619   8.948   8.916   3.690  0.2210  0.6139  0.1713
  280DOPC  H12X38620   8.995   8.916   3.589 -0.1096  1.6753  0.0023
  280DOPC  H12Y38621   9.021   8.969   3.755  0.0186  0.2679  0.6849
  280DOPC  C31338622   8.825   9.004   3.695  0.3000 -0.0623  0.7303
  280DOPC  H13X38623   8.861   9.108   3.681 -0.1065  0.0938  0.8254
  280DOPC  H13Y38624   8.760   8.973   3.610  0.4035 -1.6374  1.1852
  280DOPC  C31438625   8.746   8.987   3.823 -0.6522  0.0448 -0.1690
  280DOPC  H14X38626   8.692   8.890   3.817 -1.9129  0.5624  1.7960
  280DOPC  H14Y38627   8.801   9.005   3.918 -2.7237  2.0286  0.7668
  280DOPC  C31538628   8.639   9.104   3.822  0.2084 -0.0850  0.0212
  280DOPC  H15X38629   8.542   9.059   3.790 -0.0692  1.4165 -1.3663
  280DOPC  H15Y38630   8.663   9.177   3.742  0.4167 -1.8295 -1.5725
  280DOPC  C31638631   8.618   9.180   3.955 -0.0896 -0.3547  0.1588
  280DOPC  H16X38632   8.710   9.234   3.987 -0.9813  0.9954  0.5120
  280DOPC  H16Y38633   8.545   9.262   3.938 -0.1677 -0.0276  1.8829
  280DOPC  C31738634   8.576   9.108   4.078  0.4201  0.1044 -0.5263
  280DOPC  H17X38635   8.471   9.072   4.072 -0.0139  1.5713 -3.1718
  280DOPC  H17Y38636   8.633   9.013   4.089 -1.7023 -1.1954 -0.2148
  280DOPC  C31838637   8.594   9.165   4.223  0.1729 -0.5247  0.9241
  280DOPC  H18X38638   8.701   9.164   4.252  0.3936 -0.6968  0.1297
  280DOPC  H18Y38639   8.548   9.264   4.243 -1.9578 -0.9390 -1.4267
  280DOPC  H18Z38640   8.539   9.100   4.294  0.5478 -0.7436  1.0126
  281DOPC     N38641   2.092   0.918   1.861 -0.0251 -0.1665  0.1922
  281DOPC   C1238642   2.030   0.917   2.006 -0.3560  0.1431 -0.5538
  281DOPC  H12A38643   1.987   1.014   2.026  0.6803  0.4284  0.4128
  281DOPC  H12B38644   2.110   0.898   2.076 -0.8260  1.0880  0.2672
  281DOPC   C1338645   2.169   1.047   1.852  0.2397 -0.6797  0.2424
  281DOPC  H13A38646   2.251   1.054   1.922 -1.2381  0.0946  1.9758
  281DOPC  H13B38647   2.211   1.071   1.755 -0.8056  0.0178 -0.0553
  281DOPC  H13C38648   2.105   1.130   1.879  1.4305  0.9430 -1.6401
  281DOPC   C1438649   1.973   0.924   1.767  0.0171 -0.5037  0.1802
  281DOPC  H14A38650   1.904   0.842   1.770  0.7558 -1.1695 -0.5951
  281DOPC  H14B38651   1.923   1.017   1.791  1.6264  0.3977  0.2507
  281DOPC  H14C38652   2.002   0.935   1.664  1.8187 -1.6627  0.5187
  281DOPC   C1538653   2.173   0.801   1.836 -0.6394 -0.0442  0.3588
  281DOPC  H15A38654   2.241   0.783   1.918 -2.6512  0.5517  2.2655
  281DOPC  H15B38655   2.217   0.807   1.737 -2.2011  1.3707 -0.2925
  281DOPC  H15C38656   2.114   0.711   1.826 -0.2785 -0.4504  1.7007
  281DOPC   C1138657   1.924   0.795   2.034 -0.3884 -1.2952  0.4762
  281DOPC  H11A38658   1.904   0.800   2.143  0.1396  1.4190  0.5230
  281DOPC  H11B38659   1.827   0.817   1.984 -0.0534  1.6110  0.9347
  281DOPC     P38660   2.014   0.548   2.095  0.7207  0.3678  0.1102
  281DOPC   O1338661   2.150   0.513   2.064  0.2533  0.8169 -0.5407
  281DOPC   O1438662   1.917   0.440   2.098 -0.2726  0.2448  0.2979
  281DOPC   O1238663   1.972   0.668   1.989 -0.1778 -0.1213 -0.6140
  281DOPC   O1138664   2.014   0.620   2.236  0.1268  0.1951 -0.2149
  281DOPC    C138665   2.142   0.669   2.278 -0.3093  0.3654 -0.2857
  281DOPC    HA38666   2.187   0.733   2.199 -1.3049  1.1610 -0.2233
  281DOPC    HB38667   2.214   0.586   2.300  2.2945  1.8726 -2.4070
  281DOPC    C238668   2.123   0.750   2.407  1.4175  0.2239  0.1648
  281DOPC    HS38669   2.222   0.766   2.456  2.6284 -1.9452 -1.4098
  281DOPC   O2138670   2.030   0.677   2.493 -0.1924  0.0029 -0.5587
  281DOPC   C2138671   2.081   0.575   2.559  0.0578 -0.3899  0.2507
  281DOPC   O2238672   2.198   0.542   2.551  0.5023 -0.7778  0.4266
  281DOPC   C2238673   1.972   0.496   2.627  0.1674 -0.2897 -0.3208
  281DOPC   H2R38674   1.949   0.409   2.562 -0.9445  1.0789 -1.8581
  281DOPC   H2S38675   1.884   0.560   2.651 -0.3961 -1.5156  0.9924
  281DOPC    C338676   2.061   0.888   2.395 -0.1860  0.4676 -0.0964
  281DOPC    HX38677   1.957   0.886   2.356  0.0184 -0.3358 -0.6246
  281DOPC    HY38678   2.119   0.949   2.321 -0.4736  0.8842  0.0188
  281DOPC   O3138679   2.073   0.956   2.520 -0.7914  0.3833 -0.4491
  281DOPC   C3138680   1.959   0.961   2.594  0.0250 -0.3611 -0.0686
  281DOPC   O3238681   1.857   0.898   2.580 -0.0597 -0.2216  0.2217
  281DOPC   C3238682   1.971   1.073   2.708 -0.2058  0.0286 -0.1564
  281DOPC   H2X38683   2.021   1.156   2.654 -1.6281 -0.3099 -2.1281
  281DOPC   H2Y38684   1.865   1.096   2.733 -0.4245  0.1065 -1.1089
  281DOPC   C2338685   2.018   0.440   2.764 -0.2448  0.0811 -0.0493
  281DOPC   H3R38686   2.047   0.522   2.833  0.0979  1.0652 -1.3218
  281DOPC   H3S38687   2.112   0.380   2.759  0.7335  1.4974  0.6149
  281DOPC   C2438688   1.910   0.344   2.824  0.1339  1.0353 -0.0133
  281DOPC   H4R38689   1.956   0.309   2.918 -0.0005  0.6834 -0.0745
  281DOPC   H4S38690   1.899   0.248   2.768 -0.7087  0.5234  1.0093
  281DOPC   C2538691   1.773   0.408   2.844  0.4439 -0.6855 -0.8548
  281DOPC   H5R38692   1.721   0.422   2.747 -1.6777  0.9340  0.4179
  281DOPC   H5S38693   1.770   0.508   2.893 -1.1225 -0.8728 -0.4979
  281DOPC   C2638694   1.685   0.315   2.925 -0.2409  0.1529  0.2543
  281DOPC   H6R38695   1.725   0.313   3.029  2.4120 -2.7234 -0.6835
  281DOPC   H6S38696   1.700   0.209   2.898 -1.3212 -0.9226  3.3985
  281DOPC   C2738697   1.539   0.344   2.918 -0.6851  0.1188  0.1867
  281DOPC   H7R38698   1.496   0.363   2.818  0.0859 -1.4322 -0.4734
  281DOPC   H7S38699   1.527   0.436   2.979  1.4664  0.0707  0.7569
  281DOPC   C2838700   1.445   0.240   2.977 -0.4699  0.7852  0.1652
  281DOPC   H8R38701   1.340   0.275   2.965  0.6601  4.2452 -0.8694
  281DOPC   H8S38702   1.482   0.228   3.081 -4.2781 -1.3892  1.4817
  281DOPC   C2938703   1.445   0.101   2.910 -0.3767  0.2818 -0.4521
  281DOPC   H9R38704   1.394   0.097   2.812 -1.6462 -0.2896  0.2162
  281DOPC  C21038705   1.472  -0.023   2.965 -0.4395 -0.5342 -0.0282
  281DOPC  H10R38706   1.483  -0.097   2.885 -2.1958 -1.2243  0.3221
  281DOPC  C21138707   1.503  -0.058   3.109 -0.0937  0.1817 -0.6075
  281DOPC  H11R38708   1.464  -0.159   3.131  0.2163  0.4433  1.3570
  281DOPC  H11S38709   1.442   0.005   3.177 -0.4083  1.7984 -2.2979
  281DOPC  C21238710   1.651  -0.048   3.160 -0.3851  0.3970  0.3023
  281DOPC  H12R38711   1.675   0.058   3.182 -1.1411  1.1251 -2.0708
  281DOPC  H12S38712   1.718  -0.098   3.087 -0.4239  1.4343 -0.4580
  281DOPC  C21338713   1.667  -0.123   3.295  0.5273 -0.2089  0.2445
  281DOPC  H13R38714   1.775  -0.151   3.290  0.6052  0.2497 -1.6207
  281DOPC  H13S38715   1.625  -0.225   3.299  1.5231 -0.6126  0.9005
  281DOPC  C21438716   1.652  -0.034   3.411 -1.1220 -0.2593 -0.2631
  281DOPC  H14R38717   1.547  -0.000   3.423 -1.5022 -0.9756 -1.4365
  281DOPC  H14S38718   1.718   0.056   3.411  0.4709 -1.3550 -1.9528
  281DOPC  C21538719   1.685  -0.104   3.543  0.0017  0.1361  1.0704
  281DOPC  H15R38720   1.794  -0.128   3.540  0.0779  0.2922  2.1416
  281DOPC  H15S38721   1.619  -0.193   3.546 -1.0532  0.8714  0.3316
  281DOPC  C21638722   1.661  -0.022   3.675 -0.2133 -0.2192  0.7262
  281DOPC  H16R38723   1.560   0.024   3.683 -1.7919 -3.3608  0.4974
  281DOPC  H16S38724   1.736   0.058   3.657  0.0568 -0.3965  1.0612
  281DOPC  C21738725   1.702  -0.084   3.809 -0.2993  0.0086 -0.9290
  281DOPC  H17R38726   1.789  -0.153   3.799 -0.7762 -0.4472 -2.2894
  281DOPC  H17S38727   1.616  -0.146   3.843  1.0766 -1.1210  0.6070
  281DOPC  C21838728   1.736   0.022   3.921 -0.0360  0.0452  0.3311
  281DOPC  H18R38729   1.661   0.104   3.934  0.6194  1.5998 -4.1273
  281DOPC  H18S38730   1.834   0.069   3.898 -0.9449  1.7391 -0.2896
  281DOPC  H18T38731   1.739  -0.029   4.020 -1.3926  1.3058  1.0665
  281DOPC   C3338732   2.054   1.034   2.832  0.1553  0.1740  0.0454
  281DOPC   H3X38733   2.060   1.126   2.894 -1.7368 -0.1023  0.6927
  281DOPC   H3Y38734   2.157   1.006   2.800 -0.3577 -2.0191  0.1286
  281DOPC   C3438735   2.005   0.913   2.903 -0.4313  0.2122 -0.0031
  281DOPC   H4X38736   1.970   0.835   2.833 -2.0134  1.0826 -0.2184
  281DOPC   H4Y38737   1.916   0.933   2.966 -1.5181  0.9676 -1.7403
  281DOPC   C3538738   2.117   0.850   2.991  0.8999  0.2160  0.3680
  281DOPC   H5X38739   2.137   0.918   3.076  0.1220 -0.5609  1.1913
  281DOPC   H5Y38740   2.196   0.824   2.917 -2.3919 -2.0223 -2.7284
  281DOPC   C3638741   2.065   0.725   3.061 -0.9165 -0.2804  0.6429
  281DOPC   H6X38742   2.062   0.637   2.993  0.1175  0.3686 -0.2705
  281DOPC   H6Y38743   2.151   0.695   3.125  0.1387 -0.1531 -0.6749
  281DOPC   C3738744   1.934   0.745   3.139  0.0331 -0.0079 -0.0115
  281DOPC   H7X38745   1.953   0.816   3.223  3.1758 -1.1775  0.3956
  281DOPC   H7Y38746   1.848   0.784   3.080  0.2440  1.5482  0.6412
  281DOPC   C3838747   1.880   0.624   3.210  0.2073  0.2179 -0.2689
  281DOPC   H8X38748   1.957   0.586   3.281  0.4261 -0.5881 -0.9242
  281DOPC   H8Y38749   1.848   0.550   3.134  0.7255  0.3682 -0.6402
  281DOPC   C3938750   1.756   0.661   3.289 -0.8762 -0.9487  0.4147
  281DOPC   H9X38751   1.749   0.771   3.295  0.8840 -0.7780 -0.0157
  281DOPC  C31038752   1.643   0.590   3.318  0.2684  0.1442 -0.1949
  281DOPC  H10X38753   1.572   0.646   3.381  1.8401  0.7576  1.1111
  281DOPC  C31138754   1.614   0.457   3.281 -0.4248  0.4676 -0.0804
  281DOPC  H11X38755   1.692   0.404   3.222  0.1772  0.3889  0.7671
  281DOPC  H11Y38756   1.523   0.459   3.218  0.3212  2.3154 -1.1641
  281DOPC  C31238757   1.580   0.368   3.407 -0.1224  0.3161  0.2633
  281DOPC  H12X38758   1.675   0.337   3.456 -0.3310  0.7497  0.9580
  281DOPC  H12Y38759   1.534   0.273   3.373  1.8238 -0.2503 -1.0393
  281DOPC  C31338760   1.478   0.428   3.506  0.7414  0.7784  0.4783
  281DOPC  H13X38761   1.525   0.521   3.542  0.6070  0.3176  1.8876
  281DOPC  H13Y38762   1.393   0.475   3.452  1.8421  0.6931 -1.4350
  281DOPC  C31438763   1.424   0.325   3.609  0.1245 -0.4847 -0.2823
  281DOPC  H14X38764   1.371   0.243   3.557  1.1375 -1.4486  0.1758
  281DOPC  H14Y38765   1.506   0.287   3.673 -0.9930  1.4957  2.5860
  281DOPC  C31538766   1.324   0.390   3.709 -0.3649  0.4389 -0.0292
  281DOPC  H15X38767   1.293   0.310   3.780  1.5195  1.5638  2.1738
  281DOPC  H15Y38768   1.236   0.446   3.670  0.5342  0.6691 -1.8225
  281DOPC  C31638769   1.392   0.495   3.794  0.5175  0.3166 -0.4782
  281DOPC  H16X38770   1.482   0.443   3.832  0.8748  1.0070 -0.3463
  281DOPC  H16Y38771   1.422   0.580   3.729  0.6201  1.1707  0.6508
  281DOPC  C31738772   1.306   0.541   3.916 -0.6226 -0.1068 -0.5680
  281DOPC  H17X38773   1.209   0.579   3.880 -0.0123  1.2332 -0.8495
  281DOPC  H17Y38774   1.302   0.456   3.988 -0.3480 -0.6167 -1.1363
  281DOPC  C31838775   1.385   0.662   3.982  0.1153 -0.1077  0.0426
  281DOPC  H18X38776   1.484   0.635   4.026  0.3577 -0.0851 -0.4826
  281DOPC  H18Y38777   1.415   0.734   3.903  0.4877 -3.1188 -2.7766
  281DOPC  H18Z38778   1.327   0.712   4.063  0.2301  0.9964 -0.5267
  282DOPC     N38779   1.745   6.479   1.681 -0.3647 -0.4672 -0.1073
  282DOPC   C1238780   1.686   6.380   1.775 -0.1640 -0.2130 -0.1624
  282DOPC  H12A38781   1.582   6.357   1.753 -1.3172  1.5348  2.8164
  282DOPC  H12B38782   1.680   6.427   1.872  3.1084  0.0072  0.0170
  282DOPC   C1338783   1.658   6.598   1.659 -0.0231 -0.4045  0.3061
  282DOPC  H13A38784   1.645   6.660   1.746  2.7056  0.7132  0.0194
  282DOPC  H13B38785   1.698   6.670   1.589 -0.5765  1.0854  1.4749
  282DOPC  H13C38786   1.563   6.560   1.626 -0.1229  0.9716 -1.1288
  282DOPC   C1438787   1.771   6.414   1.548 -0.8423  0.0088  1.0483
  282DOPC  H14A38788   1.814   6.479   1.473 -0.5324 -0.1442  1.0924
  282DOPC  H14B38789   1.828   6.323   1.558 -2.7343 -1.0581  2.7882
  282DOPC  H14C38790   1.679   6.379   1.502 -1.6301  2.5385  0.5511
  282DOPC   C1538791   1.874   6.534   1.730 -0.7989 -0.2577 -0.4273
  282DOPC  H15A38792   1.858   6.589   1.821 -2.4548 -0.0072 -0.8466
  282DOPC  H15B38793   1.914   6.609   1.663 -1.0493  0.7685  0.5507
  282DOPC  H15C38794   1.941   6.454   1.759 -2.1723 -1.2772  0.0042
  282DOPC   C1138795   1.759   6.243   1.797 -0.2726 -0.3487 -0.0093
  282DOPC  H11A38796   1.870   6.253   1.802  0.0747 -3.5995  1.0105
  282DOPC  H11B38797   1.730   6.219   1.902 -0.3377 -0.8104 -0.1311
  282DOPC     P38798   1.590   6.063   1.716 -0.3565 -0.4543 -0.2340
  282DOPC   O1338799   1.586   5.969   1.603  0.5180 -0.9368  0.2306
  282DOPC   O1438800   1.474   6.156   1.729  0.1874  0.3223  0.1732
  282DOPC   O1238801   1.720   6.146   1.700  0.0407 -0.3063  0.1703
  282DOPC   O1138802   1.620   5.985   1.850 -0.2626  0.0947 -0.1716
  282DOPC    C138803   1.542   6.021   1.963  0.4495  0.2470  0.0528
  282DOPC    HA38804   1.433   6.027   1.943  0.5103  1.1558 -0.0320
  282DOPC    HB38805   1.575   6.120   2.001  4.1067 -0.6963 -0.3277
  282DOPC    C238806   1.570   5.917   2.082 -0.0704 -0.1118 -0.0224
  282DOPC    HS38807   1.500   5.936   2.166  0.8689 -0.3101  0.8236
  282DOPC   O2138808   1.704   5.941   2.123  0.2265  0.3341  0.0096
  282DOPC   C2138809   1.724   6.051   2.203 -0.4030  0.0101  0.2651
  282DOPC   O2238810   1.636   6.122   2.246 -0.8007  0.0686 -0.4523
  282DOPC   C2238811   1.872   6.085   2.221 -0.9695  0.7925 -0.6814
  282DOPC   H2R38812   1.923   6.065   2.125  0.9674  0.1348  0.4218
  282DOPC   H2S38813   1.920   6.016   2.294  2.3127  2.1173 -1.4139
  282DOPC    C338814   1.550   5.771   2.037  0.2151 -0.0952  0.6101
  282DOPC    HX38815   1.620   5.750   1.953 -1.6297  0.9712 -1.2978
  282DOPC    HY38816   1.449   5.745   1.998  0.3721 -2.1448  1.5000
  282DOPC   O3138817   1.570   5.684   2.143  0.1545  0.1316  0.3747
  282DOPC   C3138818   1.681   5.624   2.157  0.1973 -0.1812  0.4220
  282DOPC   O3238819   1.784   5.643   2.091  0.3582  0.0920  0.6232
  282DOPC   C3238820   1.667   5.528   2.279 -0.2300 -1.3522 -1.0597
  282DOPC   H2X38821   1.636   5.586   2.368 -0.9558 -1.2475 -1.3727
  282DOPC   H2Y38822   1.579   5.463   2.259 -1.0124 -0.0458 -1.9715
  282DOPC   C2338823   1.895   6.234   2.265  0.1377 -0.0468  0.0908
  282DOPC   H3R38824   1.838   6.301   2.197  0.1654  0.0829  0.1949
  282DOPC   H3S38825   2.002   6.257   2.248  0.0215 -0.4514 -1.3092
  282DOPC   C2438826   1.867   6.276   2.409 -0.2642  0.0869  0.4215
  282DOPC   H4R38827   1.913   6.203   2.480 -1.2966 -0.1269  0.8907
  282DOPC   H4S38828   1.759   6.285   2.432 -0.4675 -0.5277 -0.2325
  282DOPC   C2538829   1.947   6.398   2.460 -0.1498  0.2809 -0.2759
  282DOPC   H5R38830   1.894   6.484   2.414  1.5604  0.8835 -1.1954
  282DOPC   H5S38831   2.055   6.404   2.435  0.1933  2.9124  1.5439
  282DOPC   C2638832   1.931   6.408   2.614  0.2858  0.2097  0.0874
  282DOPC   H6R38833   1.983   6.326   2.669 -0.0972 -2.2266 -2.9245
  282DOPC   H6S38834   1.824   6.419   2.641  0.3389  0.3192  0.2556
  282DOPC   C2738835   1.992   6.535   2.666 -0.1081  0.1292  0.1522
  282DOPC   H7R38836   1.962   6.618   2.599 -1.0417 -1.5694 -1.6396
  282DOPC   H7S38837   2.102   6.531   2.652 -0.3423 -0.5628 -1.7012
  282DOPC   C2838838   1.959   6.580   2.806 -0.1246  0.1597  0.0588
  282DOPC   H8R38839   1.849   6.598   2.813 -0.4346 -0.3051 -2.5656
  282DOPC   H8S38840   2.029   6.665   2.813 -1.1631  1.1148 -0.7626
  282DOPC   C2938841   2.002   6.467   2.903  0.4070 -0.1536 -0.5130
  282DOPC   H9R38842   1.965   6.367   2.874  0.5135 -0.5654  0.7227
  282DOPC  C21038843   2.067   6.480   3.020  0.0816 -0.3794 -0.5179
  282DOPC  H10R38844   2.073   6.397   3.091 -1.4029  2.0228  2.7137
  282DOPC  C21138845   2.114   6.612   3.085  0.0958 -0.7617  0.1902
  282DOPC  H11R38846   2.104   6.708   3.030 -1.1259  0.3162  2.1768
  282DOPC  H11S38847   2.224   6.605   3.099  0.1573 -0.7807 -0.2871
  282DOPC  C21238848   2.055   6.624   3.230 -0.1500  0.0070 -0.0142
  282DOPC  H12R38849   2.080   6.727   3.264 -0.1046 -0.8733  2.8623
  282DOPC  H12S38850   2.105   6.562   3.307 -1.5203 -2.9864 -1.3798
  282DOPC  C21338851   1.909   6.599   3.251  0.9326  0.2384 -0.3895
  282DOPC  H13R38852   1.884   6.495   3.222  0.1549 -0.3202  2.0507
  282DOPC  H13S38853   1.853   6.664   3.182 -1.3568  0.3043  1.4216
  282DOPC  C21438854   1.856   6.628   3.393  0.6340  0.2985  0.2857
  282DOPC  H14R38855   1.919   6.569   3.463  1.7019 -0.0227 -0.9153
  282DOPC  H14S38856   1.872   6.737   3.409 -0.8030  0.9277 -1.9716
  282DOPC  C21538857   1.709   6.593   3.420 -0.0565 -0.0668  0.3531
  282DOPC  H15R38858   1.683   6.588   3.528  0.4955  1.4411  0.5925
  282DOPC  H15S38859   1.688   6.490   3.384 -2.8967  0.5147  0.0954
  282DOPC  C21638860   1.627   6.699   3.354  0.3996  0.0397  0.3606
  282DOPC  H16R38861   1.659   6.713   3.248 -0.2221 -0.7702  0.0571
  282DOPC  H16S38862   1.655   6.788   3.415  1.2908  0.1988 -0.2473
  282DOPC  C21738863   1.474   6.686   3.365  0.2033  0.3032  0.6185
  282DOPC  H17R38864   1.426   6.783   3.338 -0.3793 -0.8865 -3.2369
  282DOPC  H17S38865   1.454   6.654   3.469  0.2695  0.6495  0.7395
  282DOPC  C21838866   1.421   6.571   3.274  0.6305 -0.6207 -0.2003
  282DOPC  H18R38867   1.484   6.480   3.281  0.3354 -0.9284 -1.3587
  282DOPC  H18S38868   1.407   6.591   3.166 -1.6789 -1.6816 -0.1482
  282DOPC  H18T38869   1.321   6.540   3.310 -0.2533  1.5156 -0.6484
  282DOPC   C3338870   1.793   5.450   2.308  0.1112 -0.5754 -0.0379
  282DOPC   H3X38871   1.885   5.512   2.313 -0.0260 -0.3200 -0.5949
  282DOPC   H3Y38872   1.819   5.385   2.222  2.8168 -0.6092  0.7323
  282DOPC   C3438873   1.767   5.366   2.436 -0.4300 -0.1363  0.9519
  282DOPC   H4X38874   1.711   5.428   2.509 -0.5685  3.1536 -1.7056
  282DOPC   H4Y38875   1.869   5.347   2.474  0.5124  0.4244 -1.1554
  282DOPC   C3538876   1.696   5.231   2.412  0.5265  1.1023 -0.3268
  282DOPC   H5X38877   1.747   5.171   2.333  0.1744  0.8679 -0.3812
  282DOPC   H5Y38878   1.587   5.245   2.395  0.1582 -1.0270  0.0402
  282DOPC   C3638879   1.707   5.128   2.529  0.4167  0.2613 -0.0735
  282DOPC   H6X38880   1.639   5.045   2.502 -1.2048  1.8984 -1.2745
  282DOPC   H6Y38881   1.807   5.079   2.534  0.3095  0.1148  0.9092
  282DOPC   C3738882   1.672   5.176   2.676  0.2246 -0.1730  0.1669
  282DOPC   H7X38883   1.753   5.250   2.696 -1.3244  1.1602  1.8005
  282DOPC   H7Y38884   1.572   5.223   2.681 -0.2224 -0.8775 -1.4795
  282DOPC   C3838885   1.680   5.063   2.788  0.8629 -0.7618 -0.3007
  282DOPC   H8X38886   1.774   5.006   2.777  3.1864  2.7239 -0.1941
  282DOPC   H8Y38887   1.594   4.995   2.771  0.3523 -0.0126 -0.7760
  282DOPC   C3938888   1.650   5.124   2.930  0.6084  0.7039 -0.0358
  282DOPC   H9X38889   1.575   5.205   2.934 -1.2643 -0.9711  2.6316
  282DOPC  C31038890   1.702   5.075   3.044 -0.8221 -0.1202  0.1593
  282DOPC  H10X38891   1.674   5.127   3.137  1.1997  2.2234 -0.4355
  282DOPC  C31138892   1.798   4.964   3.048 -0.6393  0.6589 -0.3090
  282DOPC  H11X38893   1.855   4.967   2.953 -1.2162  0.6897 -0.6606
  282DOPC  H11Y38894   1.730   4.876   3.044 -2.0921  1.7122  0.2657
  282DOPC  C31238895   1.882   4.961   3.171 -0.5211  0.1955 -0.0707
  282DOPC  H12X38896   1.933   5.059   3.174 -0.0177  0.0423 -2.3774
  282DOPC  H12Y38897   1.976   4.904   3.156 -1.0019 -0.9194  0.9230
  282DOPC  C31338898   1.819   4.917   3.306  1.0336  0.1305 -0.0550
  282DOPC  H13X38899   1.744   4.988   3.347 -1.8703 -2.9820  0.3641
  282DOPC  H13Y38900   1.767   4.822   3.283  0.6672 -0.0564  1.3978
  282DOPC  C31438901   1.927   4.898   3.402 -0.2773  0.1165 -0.2504
  282DOPC  H14X38902   1.989   4.812   3.372 -0.8907 -0.5892  0.4396
  282DOPC  H14Y38903   1.988   4.991   3.401  3.7875 -2.2890  0.5709
  282DOPC  C31538904   1.877   4.874   3.547  0.0560  0.6650 -0.0880
  282DOPC  H15X38905   1.798   4.797   3.560  0.6343  0.1901  0.7666
  282DOPC  H15Y38906   1.839   4.970   3.587 -2.0430 -0.4098  0.6497
  282DOPC  C31638907   1.985   4.832   3.643 -0.3888  0.5936  0.1222
  282DOPC  H16X38908   2.028   4.736   3.607  3.1393  2.1205 -0.1850
  282DOPC  H16Y38909   2.071   4.901   3.625 -0.0029 -0.0272 -0.4641
  282DOPC  C31738910   1.935   4.818   3.794 -0.7505  0.0568  0.5248
  282DOPC  H17X38911   2.004   4.748   3.846 -2.5998 -1.6589  0.7790
  282DOPC  H17Y38912   1.935   4.916   3.846 -1.9235  0.2208  0.2410
  282DOPC  C31838913   1.798   4.754   3.815 -0.8731  0.0542  0.1388
  282DOPC  H18X38914   1.795   4.670   3.743 -1.3229 -0.7891  1.1052
  282DOPC  H18Y38915   1.786   4.710   3.917 -1.8617 -2.8265 -1.1399
  282DOPC  H18Z38916   1.709   4.810   3.778 -1.7296 -0.8799  0.7278
  283DOPC     N38917  11.512   4.847   1.732 -0.7682  0.1976 -0.0195
  283DOPC   C1238918  11.638   4.793   1.812 -0.3419 -0.8791  0.0569
  283DOPC  H12A38919  11.601   4.770   1.911 -0.6961  1.4919  0.5480
  283DOPC  H12B38920  11.697   4.882   1.830 -0.3812 -0.7145 -0.6212
  283DOPC   C1338921  11.427   4.929   1.823 -0.6761 -0.0128  0.4460
  283DOPC  H13A38922  11.485   5.008   1.868 -0.6382  0.0388  0.3069
  283DOPC  H13B38923  11.343   4.963   1.764 -0.7428 -0.9064  0.0119
  283DOPC  H13C38924  11.389   4.869   1.904  2.0637 -1.3283  0.8781
  283DOPC   C1438925  11.432   4.725   1.694  0.8168 -0.4873  0.0206
  283DOPC  H14A38926  11.333   4.750   1.657  0.8222  1.7505  1.3326
  283DOPC  H14B38927  11.483   4.660   1.625  0.0885  0.8637 -1.8781
  283DOPC  H14C38928  11.410   4.668   1.783 -0.8152 -0.2304 -0.1904
  283DOPC   C1538929  11.554   4.929   1.612  0.5525  0.0823 -0.3863
  283DOPC  H15A38930  11.464   4.958   1.560 -0.0136 -0.0962  0.4718
  283DOPC  H15B38931  11.593   4.858   1.541 -2.6121 -2.0065 -0.2477
  283DOPC  H15C38932  11.621   5.010   1.635  0.4733  0.2125 -0.6115
  283DOPC   C1138933  11.733   4.676   1.774  0.8528 -0.5696  0.1188
  283DOPC  H11A38934  11.769   4.713   1.676  0.4604  2.4775  1.0052
  283DOPC  H11B38935  11.822   4.672   1.841  2.2645 -0.5565 -1.6881
  283DOPC     P38936  11.633   4.471   1.905 -0.0737 -0.1995  0.6154
  283DOPC   O1338937  11.671   4.331   1.885 -0.0025  0.0482 -0.0557
  283DOPC   O1438938  11.492   4.498   1.934 -0.5597  0.0897 -0.0394
  283DOPC   O1238939  11.661   4.551   1.768  0.2350  0.9335 -0.1276
  283DOPC   O1138940  11.715   4.531   2.024 -0.3522  0.1379 -0.0036
  283DOPC    C138941  11.853   4.520   2.049 -0.1713 -0.7505 -0.0304
  283DOPC    HA38942  11.894   4.614   2.091 -1.1201 -0.4819  0.3209
  283DOPC    HB38943  11.905   4.478   1.960 -0.2074 -3.5041  1.1594
  283DOPC    C238944  11.864   4.405   2.152  0.0677 -0.4951 -0.2179
  283DOPC    HS38945  11.787   4.334   2.117  0.7543 -0.7961 -1.1572
  283DOPC   O2138946  11.827   4.462   2.284 -0.4123  0.3841 -0.5410
  283DOPC   C2138947  11.745   4.391   2.353 -0.5436  0.0326 -0.3957
  283DOPC   O2238948  11.687   4.287   2.322  0.4002 -0.4306 -0.1371
  283DOPC   C2238949  11.743   4.464   2.491  0.5224  0.5669 -0.5797
  283DOPC   H2R38950  11.660   4.537   2.484 -0.6115 -0.7546 -1.3494
  283DOPC   H2S38951  11.843   4.508   2.511  0.3145 -0.0945  2.4428
  283DOPC    C338952  12.003   4.341   2.158 -0.1968  0.6314 -0.2201
  283DOPC    HX38953  12.079   4.422   2.162  0.2380  0.2942 -1.2467
  283DOPC    HY38954  12.019   4.295   2.058 -1.5237  0.1140 -0.2137
  283DOPC   O3138955  12.012   4.249   2.268 -0.5169 -0.1212  0.7944
  283DOPC   C3138956  12.129   4.179   2.272 -0.2498  0.4489 -0.0554
  283DOPC   O3238957  12.225   4.212   2.205 -0.3136  0.0415 -0.0288
  283DOPC   C3238958  12.122   4.070   2.371  0.0677 -0.5680  0.6465
  283DOPC   H2X38959  12.030   4.076   2.433 -0.5096  0.4232 -0.2601
  283DOPC   H2Y38960  12.111   3.974   2.316  0.0749 -0.7368  0.9380
  283DOPC   C2338961  11.707   4.370   2.616  0.1001  0.0414  0.0258
  283DOPC   H3R38962  11.768   4.276   2.614 -0.4000 -0.2763 -0.6849
  283DOPC   H3S38963  11.603   4.333   2.613 -0.6288  2.0354 -1.0665
  283DOPC   C2438964  11.746   4.438   2.752  0.1868 -0.0004  0.3615
  283DOPC   H4R38965  11.670   4.519   2.764 -0.0699 -0.1115 -0.4176
  283DOPC   H4S38966  11.845   4.488   2.758 -0.0466  0.7175 -1.1853
  283DOPC   C2538967  11.735   4.338   2.879 -0.6961 -0.4452  0.6606
  283DOPC   H5R38968  11.798   4.384   2.959 -1.3427 -0.0982  0.9797
  283DOPC   H5S38969  11.793   4.252   2.839  2.3763  2.3229 -1.3769
  283DOPC   C2638970  11.600   4.299   2.931  0.6360 -0.4271 -0.2284
  283DOPC   H6R38971  11.553   4.241   2.849 -1.1588 -0.4371  0.7514
  283DOPC   H6S38972  11.526   4.377   2.961  1.1485  0.5525 -1.4467
  283DOPC   C2738973  11.609   4.196   3.059  0.3227  0.0876  0.2016
  283DOPC   H7R38974  11.652   4.269   3.130 -1.5489  3.3047 -1.7159
  283DOPC   H7S38975  11.684   4.120   3.030  0.5867  0.6541 -0.6445
  283DOPC   C2838976  11.479   4.129   3.105  0.3814 -0.1835  0.9322
  283DOPC   H8R38977  11.443   4.049   3.037 -1.4976  1.9341 -0.7351
  283DOPC   H8S38978  11.400   4.208   3.101  1.0424  0.6012  2.5093
  283DOPC   C2938979  11.481   4.069   3.243  0.5676  0.2619  0.3807
  283DOPC   H9R38980  11.435   4.136   3.318  1.2010  1.3774 -0.1880
  283DOPC  C21038981  11.530   3.950   3.282 -0.1950  0.1291 -0.2539
  283DOPC  H10R38982  11.514   3.923   3.388  0.3037  1.5534  0.2100
  283DOPC  C21138983  11.613   3.854   3.197  0.2779  0.4007  0.7317
  283DOPC  H11R38984  11.715   3.864   3.240  0.6691  2.5236 -0.5869
  283DOPC  H11S38985  11.620   3.891   3.093 -1.9916  1.2798  0.8302
  283DOPC  C21238986  11.553   3.711   3.180 -0.3759  0.6449  0.0876
  283DOPC  H12R38987  11.444   3.721   3.160 -0.4125  0.9873  0.4335
  283DOPC  H12S38988  11.561   3.665   3.281  2.2923  0.3360 -0.1860
  283DOPC  C21338989  11.618   3.616   3.077  0.7568 -0.2509  0.7157
  283DOPC  H13R38990  11.728   3.626   3.082  0.6041  1.4811  1.5153
  283DOPC  H13S38991  11.584   3.645   2.975 -1.1477 -0.9116  1.1250
  283DOPC  C21438992  11.574   3.468   3.089 -0.5566  0.1863 -0.0594
  283DOPC  H14R38993  11.628   3.436   3.181  3.0901  2.0693 -1.3540
  283DOPC  H14S38994  11.615   3.405   3.008 -1.6814  1.1025 -1.3881
  283DOPC  C21538995  11.422   3.441   3.092 -0.2565  0.0058  0.2320
  283DOPC  H15R38996  11.379   3.490   3.182  3.6733  0.5748  2.0133
  283DOPC  H15S38997  11.397   3.334   3.107 -0.9976  0.1066 -0.2125
  283DOPC  C21638998  11.360   3.484   2.962  0.4185  0.3436  0.0136
  283DOPC  H16R38999  11.408   3.453   2.866  0.7343 -1.3689  0.6777
  283DOPC  H16S39000  11.382   3.593   2.966 -0.1480  0.4499  0.2711
  283DOPC  C21739001  11.205   3.466   2.955 -1.0103  0.1656  0.0247
  283DOPC  H17R39002  11.153   3.546   2.896 -1.2883 -1.6190 -2.3066
  283DOPC  H17S39003  11.172   3.477   3.060 -0.6285 -2.8779  0.5424
  283DOPC  C21839004  11.168   3.321   2.903 -0.3152 -0.7354 -0.1451
  283DOPC  H18R39005  11.058   3.320   2.886 -0.3583 -1.7568  0.1147
  283DOPC  H18S39006  11.189   3.248   2.984  0.3771 -0.1900  0.1810
  283DOPC  H18T39007  11.225   3.293   2.812  1.5237 -2.0338  1.3142
  283DOPC   C3339008  12.245   4.062   2.460  0.0788 -0.3800 -0.4680
  283DOPC   H3X39009  12.331   4.114   2.412 -1.0628 -0.7561 -3.0281
  283DOPC   H3Y39010  12.287   3.960   2.474  3.3113  0.7746 -0.8684
  283DOPC   C3439011  12.203   4.097   2.609  0.4959  0.1348  0.0855
  283DOPC   H4X39012  12.275   4.052   2.681 -0.6618  1.4539  2.1741
  283DOPC   H4Y39013  12.103   4.050   2.618 -1.5723  4.2497  1.5049
  283DOPC   C3539014  12.195   4.250   2.652 -0.5081  0.9667  0.7650
  283DOPC   H5X39015  12.119   4.292   2.582  0.6545  0.4216 -0.8780
  283DOPC   H5Y39016  12.292   4.294   2.619  0.5888 -0.1420  2.3712
  283DOPC   C3639017  12.157   4.278   2.801  0.7876  1.4474  0.2251
  283DOPC   H6X39018  12.055   4.233   2.806  1.7274 -1.5469 -3.1231
  283DOPC   H6Y39019  12.228   4.229   2.871  0.4011 -1.0017 -0.9856
  283DOPC   C3739020  12.163   4.420   2.828 -0.1799 -0.2307 -0.6256
  283DOPC   H7X39021  12.255   4.476   2.799 -1.4193  1.7792 -0.8579
  283DOPC   H7Y39022  12.087   4.466   2.761 -0.3831  1.1669  0.5098
  283DOPC   C3839023  12.110   4.452   2.972 -0.3071 -0.9720 -0.5919
  283DOPC   H8X39024  12.188   4.399   3.032 -0.6893 -0.5270  0.3279
  283DOPC   H8Y39025  12.014   4.400   2.994 -0.3879 -0.4239  0.4363
  283DOPC   C3939026  12.089   4.599   3.002  0.3545 -0.3141  0.1646
  283DOPC   H9X39027  12.050   4.641   2.908  0.3363 -0.3459  0.1577
  283DOPC  C31039028  12.123   4.674   3.107  0.4043  0.0444 -0.1722
  283DOPC  H10X39029  12.099   4.781   3.114  4.4530  1.0474  1.8795
  283DOPC  C31139030  12.199   4.626   3.227 -0.4012  0.1453 -0.6879
  283DOPC  H11X39031  12.205   4.516   3.239  1.1267  0.4123  1.5124
  283DOPC  H11Y39032  12.157   4.668   3.322 -1.3764  0.0826 -1.0753
  283DOPC  C31239033  12.343   4.678   3.220 -0.1780 -0.1519 -0.5962
  283DOPC  H12X39034  12.391   4.632   3.131 -0.8626 -0.4548 -0.8085
  283DOPC  H12Y39035  12.398   4.646   3.312  0.3546 -0.5018 -1.0305
  283DOPC  C31339036  12.353   4.833   3.210 -0.7872 -0.3440 -0.1341
  283DOPC  H13X39037  12.343   4.873   3.107 -0.0733 -1.0475 -0.4860
  283DOPC  H13Y39038  12.264   4.878   3.260 -1.0222 -1.2564  0.2818
  283DOPC  C31439039  12.485   4.888   3.274  0.1093  0.0441  0.3226
  283DOPC  H14X39040  12.481   4.989   3.320  1.4316  1.3010 -2.1484
  283DOPC  H14Y39041  12.517   4.829   3.363  1.1824 -1.0946 -0.7746
  283DOPC  C31539042  12.608   4.907   3.180  0.6167  0.1008  0.0601
  283DOPC  H15X39043  12.574   4.963   3.090 -1.6798 -2.6039 -0.9094
  283DOPC  H15Y39044  12.643   4.806   3.150  0.8310 -0.2456  1.4016
  283DOPC  C31639045  12.721   4.984   3.247  0.1278  0.4390 -0.4362
  283DOPC  H16X39046  12.796   5.007   3.169 -0.4935  2.1299 -0.5671
  283DOPC  H16Y39047  12.683   5.086   3.267 -0.6529  0.1728 -0.5131
  283DOPC  C31739048  12.772   4.911   3.368 -0.2908 -0.6003 -0.1027
  283DOPC  H17X39049  12.691   4.916   3.444 -2.0431  2.1409 -1.9303
  283DOPC  H17Y39050  12.779   4.805   3.335 -0.3782 -0.5510 -0.2833
  283DOPC  C31839051  12.901   4.951   3.426 -0.5032 -0.4956 -0.4856
  283DOPC  H18X39052  12.984   4.946   3.352  1.0106 -1.9492  1.2038
  283DOPC  H18Y39053  12.901   5.053   3.469  2.1973  0.2293 -1.9168
  283DOPC  H18Z39054  12.940   4.884   3.506  0.0062  1.7682  1.2618
  284DOPC     N39055   4.635   9.325   2.006 -0.3584  0.4567 -0.3156
  284DOPC   C1239056   4.596   9.447   2.094  0.1235  0.2840 -0.0689
  284DOPC  H12A39057   4.523   9.415   2.166  1.6350  0.0743  1.4194
  284DOPC  H12B39058   4.537   9.509   2.028 -0.2353  0.0854  0.0620
  284DOPC   C1339059   4.510   9.258   1.958 -0.3898 -0.3032  0.2066
  284DOPC  H13A39060   4.519   9.156   1.924 -1.9484 -1.2199  2.3222
  284DOPC  H13B39061   4.443   9.240   2.040  0.1489 -1.5662  0.3923
  284DOPC  H13C39062   4.459   9.304   1.874 -0.0546 -1.4426 -0.6454
  284DOPC   C1439063   4.699   9.224   2.094 -0.0646 -0.1639  0.8098
  284DOPC  H14A39064   4.641   9.182   2.175  1.0699  2.5487  3.2102
  284DOPC  H14B39065   4.720   9.144   2.025  2.0207 -1.2578  2.5889
  284DOPC  H14C39066   4.797   9.251   2.131  0.9714  1.0537 -2.4252
  284DOPC   C1539067   4.722   9.357   1.886  0.5312 -0.1177  0.0279
  284DOPC  H15A39068   4.660   9.404   1.811  1.4804  2.4949  0.7597
  284DOPC  H15B39069   4.747   9.267   1.832  1.5945  1.9228 -3.1210
  284DOPC  H15C39070   4.814   9.404   1.919  0.4190 -0.3840  0.7393
  284DOPC   C1139071   4.716   9.516   2.165  0.1491  0.4750  0.2481
  284DOPC  H11A39072   4.671   9.609   2.206 -1.2216 -0.0263 -0.0619
  284DOPC  H11B39073   4.754   9.456   2.250  0.4195 -0.4508 -0.5145
  284DOPC     P39074   4.872   9.669   2.021  0.0517 -0.1448  0.2866
  284DOPC   O1339075   4.779   9.704   1.908  0.6451  0.1351 -0.0902
  284DOPC   O1439076   5.019   9.670   1.985  0.4696 -0.0475 -0.5607
  284DOPC   O1239077   4.836   9.535   2.087 -0.0206  0.0729 -1.2295
  284DOPC   O1139078   4.861   9.767   2.143  0.0256  0.5543 -0.9975
  284DOPC    C139079   4.960   9.821   2.231  0.0262 -0.2004  0.4955
  284DOPC    HA39080   4.922   9.916   2.274 -1.6085  0.6088 -2.4916
  284DOPC    HB39081   5.047   9.860   2.174 -1.0011  1.4227 -0.0432
  284DOPC    C239082   4.992   9.723   2.339  0.0317  0.2735 -0.0715
  284DOPC    HS39083   5.028   9.634   2.283 -1.2588 -1.2941  1.4493
  284DOPC   O2139084   4.873   9.696   2.420 -0.1943 -0.5227  0.0846
  284DOPC   C2139085   4.857   9.576   2.453 -0.4440  1.1636  0.5849
  284DOPC   O2239086   4.939   9.482   2.438 -0.0901 -0.4617 -0.7161
  284DOPC   C2239087   4.727   9.558   2.531 -0.2178 -0.1566  0.4522
  284DOPC   H2R39088   4.687   9.455   2.520 -2.5610  0.7167  0.1063
  284DOPC   H2S39089   4.646   9.621   2.488 -0.2104 -0.8167 -0.5710
  284DOPC    C339090   5.097   9.794   2.435 -0.7054  1.0454  0.0015
  284DOPC    HX39091   5.041   9.880   2.478 -3.1414 -1.0934  1.3925
  284DOPC    HY39092   5.188   9.826   2.379  0.1612 -0.3053  0.5902
  284DOPC   O3139093   5.138   9.704   2.543 -0.6603 -0.2771 -0.2839
  284DOPC   C3139094   5.215   9.599   2.511 -0.4486 -0.2364 -0.0986
  284DOPC   O3239095   5.277   9.580   2.407  0.3020 -0.8071 -0.0290
  284DOPC   C3239096   5.234   9.514   2.639  0.1041 -0.8909  0.1604
  284DOPC   H2X39097   5.249   9.589   2.720  0.6810 -0.6616 -0.1492
  284DOPC   H2Y39098   5.141   9.457   2.656  0.9694 -1.9478  1.6191
  284DOPC   C2339099   4.750   9.571   2.681 -0.0159 -0.2173  0.2743
  284DOPC   H3R39100   4.832   9.504   2.712  1.4834  1.3705 -0.0773
  284DOPC   H3S39101   4.652   9.545   2.726  0.2287 -2.0565 -0.1998
  284DOPC   C2439102   4.772   9.712   2.736  0.2738  0.7593  0.6933
  284DOPC   H4R39103   4.880   9.737   2.737  1.2252 -2.7781 -0.2817
  284DOPC   H4S39104   4.745   9.701   2.844 -2.6717 -0.5214 -0.0712
  284DOPC   C2539105   4.676   9.822   2.678  0.0985 -0.6972  0.3171
  284DOPC   H5R39106   4.580   9.766   2.682  1.0538 -2.3712  0.7418
  284DOPC   H5S39107   4.697   9.836   2.569 -0.3130 -3.2927 -0.1623
  284DOPC   C2639108   4.677   9.947   2.752  0.2643 -1.0950  0.1279
  284DOPC   H6R39109   4.772   9.991   2.716 -0.2940 -1.0085 -1.3162
  284DOPC   H6S39110   4.691   9.926   2.860 -2.0205  0.4689  0.8129
  284DOPC   C2739111   4.548  10.030   2.726 -0.6800 -0.0639 -0.2904
  284DOPC   H7R39112   4.458   9.964   2.724 -1.2957  0.7674 -3.1450
  284DOPC   H7S39113   4.545  10.082   2.629 -0.6429  0.5644  0.0399
  284DOPC   C2839114   4.526  10.135   2.839 -0.0976 -0.0862  0.1782
  284DOPC   H8R39115   4.618  10.195   2.825 -0.3699  0.3142  0.0916
  284DOPC   H8S39116   4.540  10.091   2.940  0.7466  1.0257  0.5661
  284DOPC   C2939117   4.391  10.206   2.826  0.1712 -0.7533 -0.2225
  284DOPC   H9R39118   4.309  10.146   2.866 -0.3468 -2.1902 -3.1664
  284DOPC  C21039119   4.378  10.337   2.777  0.8138  0.5810  0.0882
  284DOPC  H10R39120   4.270  10.352   2.763  0.9249 -0.7096 -3.1667
  284DOPC  C21139121   4.462  10.432   2.703  0.2469  0.8280  0.0309
  284DOPC  H11R39122   4.428  10.444   2.598  1.1557  2.6265 -0.0834
  284DOPC  H11S39123   4.565  10.389   2.704  0.3300  0.9542  2.2816
  284DOPC  C21239124   4.458  10.570   2.768  0.5294  0.0812 -0.2661
  284DOPC  H12R39125   4.351  10.601   2.777  0.3578  0.1065 -2.0087
  284DOPC  H12S39126   4.519  10.638   2.705  1.8805  1.4652  2.3514
  284DOPC  C21339127   4.537  10.586   2.906 -0.2319  0.4063  0.3990
  284DOPC  H13R39128   4.642  10.554   2.884 -0.3991  0.5012 -0.6042
  284DOPC  H13S39129   4.497  10.528   2.992  2.0702  0.0247  1.2867
  284DOPC  C21439130   4.569  10.734   2.940  0.8720 -0.2985 -0.3015
  284DOPC  H14R39131   4.494  10.779   3.008 -1.3426 -0.4179 -2.5100
  284DOPC  H14S39132   4.563  10.783   2.840  0.1760 -1.0214 -0.6274
  284DOPC  C21539133   4.712  10.760   2.996  0.2504  0.1391  0.4118
  284DOPC  H15R39134   4.732  10.869   2.989 -0.2076  0.2151  0.2401
  284DOPC  H15S39135   4.787  10.713   2.927 -0.6918  0.5136 -0.8996
  284DOPC  C21639136   4.744  10.716   3.142 -0.3730  0.0379  0.0906
  284DOPC  H16R39137   4.735  10.605   3.144  0.2998 -0.0168  0.3782
  284DOPC  H16S39138   4.676  10.765   3.214 -1.2413  1.3234 -1.5331
  284DOPC  C21739139   4.889  10.747   3.192  0.0352  0.3428  0.2535
  284DOPC  H17R39140   4.904  10.857   3.182  0.5065  0.1014 -2.2948
  284DOPC  H17S39141   4.964  10.707   3.120  0.2348 -0.0232  0.6593
  284DOPC  C21839142   4.924  10.693   3.329 -0.2600 -0.6503 -0.4173
  284DOPC  H18R39143   4.870  10.760   3.400  0.5597  1.3830 -1.6157
  284DOPC  H18S39144   4.907  10.584   3.343 -1.1886 -0.5969 -1.0331
  284DOPC  H18T39145   5.032  10.701   3.354  0.0989 -2.8167 -1.0526
  284DOPC   C3339146   5.353   9.417   2.645  0.2002 -0.3689 -0.2067
  284DOPC   H3X39147   5.452   9.460   2.619  0.7034 -0.1879  1.7959
  284DOPC   H3Y39148   5.327   9.339   2.570 -2.8023 -0.1518  0.4742
  284DOPC   C3439149   5.361   9.343   2.779 -0.2993  0.4717  0.1210
  284DOPC   H4X39150   5.269   9.290   2.813  0.7113 -0.3082  1.8076
  284DOPC   H4Y39151   5.378   9.405   2.870 -0.8628  0.6524  0.1096
  284DOPC   C3539152   5.473   9.244   2.778 -0.1510 -0.3010 -0.1987
  284DOPC   H5X39153   5.565   9.304   2.795 -0.6237  0.9899 -1.8534
  284DOPC   H5Y39154   5.489   9.211   2.673  1.3600  1.1436 -0.4600
  284DOPC   C3639155   5.471   9.120   2.870  0.0860  0.3390  0.5074
  284DOPC   H6X39156   5.433   9.138   2.973 -0.8304 -1.5722  0.5642
  284DOPC   H6Y39157   5.390   9.056   2.828 -1.3267  0.8445  2.3602
  284DOPC   C3739158   5.606   9.048   2.883  0.1734  0.2770 -0.1994
  284DOPC   H7X39159   5.634   9.020   2.779  3.2489 -2.5205  1.1761
  284DOPC   H7Y39160   5.687   9.116   2.918 -0.5391  0.0455  2.0286
  284DOPC   C3839161   5.611   8.923   2.967  0.4352 -0.1985  0.4076
  284DOPC   H8X39162   5.512   8.875   2.951  0.2054  0.2516  0.4664
  284DOPC   H8Y39163   5.614   8.953   3.074  2.8735  0.4563  0.2107
  284DOPC   C3939164   5.729   8.833   2.933 -0.3619 -0.3772 -0.0683
  284DOPC   H9X39165   5.769   8.855   2.833 -1.5645  1.1907 -0.2370
  284DOPC  C31039166   5.794   8.747   3.014  0.1321  0.3735  0.7536
  284DOPC  H10X39167   5.875   8.684   2.975 -0.7652 -1.0439  1.1272
  284DOPC  C31139168   5.757   8.711   3.154  0.0204 -0.1016 -0.4954
  284DOPC  H11X39169   5.795   8.609   3.179  0.3022 -0.0660 -0.7730
  284DOPC  H11Y39170   5.646   8.708   3.165 -0.0120  1.1217 -0.3093
  284DOPC  C31239171   5.809   8.806   3.264  0.2079  0.4146 -0.6294
  284DOPC  H12X39172   5.782   8.908   3.229  2.6792  1.7688  1.1208
  284DOPC  H12Y39173   5.920   8.799   3.270  0.1998  1.4259  1.3669
  284DOPC  C31339174   5.754   8.768   3.401 -0.0497  0.2108  0.2412
  284DOPC  H13X39175   5.650   8.809   3.402 -0.5265 -0.9813  1.0564
  284DOPC  H13Y39176   5.744   8.660   3.422 -0.1362  0.1402 -0.1564
  284DOPC  C31439177   5.836   8.828   3.515 -0.3699  0.4736 -0.1628
  284DOPC  H14X39178   5.799   8.781   3.609 -1.5063 -1.4502 -1.4993
  284DOPC  H14Y39179   5.944   8.800   3.512  0.2545  2.7812 -0.9747
  284DOPC  C31539180   5.825   8.979   3.514 -0.9080 -0.3257  0.2346
  284DOPC  H15X39181   5.719   9.009   3.512 -0.3703  1.6623 -0.5404
  284DOPC  H15Y39182   5.865   9.028   3.423 -2.1265  2.5958  1.1630
  284DOPC  C31639183   5.893   9.044   3.633 -0.3179 -0.2509 -0.1453
  284DOPC  H16X39184   5.880   8.986   3.727  0.7245 -1.5027 -0.7382
  284DOPC  H16Y39185   6.002   9.054   3.614 -0.2493 -2.3970 -1.2055
  284DOPC  C31739186   5.854   9.186   3.651  0.4350 -0.1909  0.1958
  284DOPC  H17X39187   5.927   9.239   3.716  2.0423  0.4164 -1.9866
  284DOPC  H17Y39188   5.876   9.230   3.552  1.1337 -1.0545 -0.0408
  284DOPC  C31839189   5.709   9.205   3.701 -0.9631 -0.2979 -0.3667
  284DOPC  H18X39190   5.694   9.313   3.720  0.1183 -0.3514  0.9545
  284DOPC  H18Y39191   5.633   9.173   3.626  0.4406 -0.8991 -1.5885
  284DOPC  H18Z39192   5.709   9.154   3.799  1.0255 -0.0766 -0.2017
  285DOPC     N39193   8.237  11.747   1.953  0.1233  0.0675  0.1625
  285DOPC   C1239194   8.251  11.712   2.100 -0.1173  0.0882  0.1991
  285DOPC  H12A39195   8.300  11.794   2.150 -1.0531  0.6838  0.1632
  285DOPC  H12B39196   8.315  11.625   2.107  0.9983  0.7832 -1.1699
  285DOPC   C1339197   8.155  11.871   1.938  1.0263 -0.3246 -0.1353
  285DOPC  H13A39198   8.063  11.865   1.993 -0.5399 -0.0356 -2.5635
  285DOPC  H13B39199   8.207  11.961   1.968 -0.8763  0.8630 -0.2691
  285DOPC  H13C39200   8.137  11.879   1.832 -0.3329  1.2960  0.1838
  285DOPC   C1439201   8.162  11.629   1.894 -0.0437 -0.4269  0.6993
  285DOPC  H14A39202   8.217  11.536   1.904 -0.6656 -1.2401 -2.3749
  285DOPC  H14B39203   8.070  11.617   1.950  0.5150 -0.0931  1.7313
  285DOPC  H14C39204   8.125  11.644   1.794 -1.2711  1.8230  1.4151
  285DOPC   C1539205   8.375  11.746   1.892 -0.1728 -0.3599  0.4639
  285DOPC  H15A39206   8.429  11.655   1.913 -0.1081 -0.1912  1.0646
  285DOPC  H15B39207   8.424  11.839   1.920 -1.7149 -0.1184  2.6273
  285DOPC  H15C39208   8.373  11.757   1.785 -1.2688  0.7672  0.5779
  285DOPC   C1139209   8.116  11.673   2.179  0.1227 -0.3949 -0.4258
  285DOPC  H11A39210   8.036  11.640   2.109 -0.5261 -1.1507  0.6502
  285DOPC  H11B39211   8.148  11.595   2.252  4.4893  2.2092  0.7837
  285DOPC     P39212   8.110  11.847   2.370 -0.2831  0.0847  0.7916
  285DOPC   O1339213   7.997  11.928   2.422 -0.2924 -0.4414 -0.0683
  285DOPC   O1439214   8.243  11.909   2.350 -0.0710  0.4031 -0.1237
  285DOPC   O1239215   8.060  11.787   2.235 -0.4267 -0.5280  0.1597
  285DOPC   O1139216   8.123  11.709   2.455 -0.6201 -0.4220  0.3498
  285DOPC    C139217   8.004  11.638   2.488 -0.9630  0.4774  0.1740
  285DOPC    HA39218   8.031  11.531   2.493  0.5906  0.6108 -2.9878
  285DOPC    HB39219   7.923  11.633   2.412  0.0152 -0.7765 -0.8325
  285DOPC    C239220   7.946  11.674   2.628  0.1364 -0.8473 -0.9163
  285DOPC    HS39221   7.891  11.770   2.624 -1.5315 -1.7138  0.2293
  285DOPC   O2139222   8.051  11.667   2.724 -0.1373  0.1460  0.0879
  285DOPC   C2139223   8.051  11.738   2.837 -0.0739 -0.6381  0.4505
  285DOPC   O2239224   7.956  11.818   2.871 -0.1686  0.9767  0.1941
  285DOPC   C2239225   8.184  11.712   2.905 -0.1310 -0.5108 -0.2901
  285DOPC   H2R39226   8.266  11.755   2.844 -0.0982 -1.2187 -0.7457
  285DOPC   H2S39227   8.200  11.603   2.912 -1.5877 -0.7549 -0.5244
  285DOPC    C339228   7.840  11.562   2.672 -0.1574  0.0096  0.0495
  285DOPC    HX39229   7.892  11.465   2.659 -0.8020 -0.1350 -1.7178
  285DOPC    HY39230   7.765  11.563   2.590  3.1784  3.5632 -3.4524
  285DOPC   O3139231   7.782  11.561   2.799  0.1694  0.4893 -0.4272
  285DOPC   C3139232   7.690  11.654   2.825  0.5496 -0.7504 -0.1425
  285DOPC   O3239233   7.656  11.746   2.753 -0.0743 -0.1727  0.1124
  285DOPC   C3239234   7.651  11.634   2.974  0.0340 -0.3149 -0.3679
  285DOPC   H2X39235   7.654  11.527   3.002 -1.1518 -0.2009  0.2638
  285DOPC   H2Y39236   7.728  11.691   3.031 -1.6744  0.2380  1.4936
  285DOPC   C2339237   8.182  11.770   3.046  0.0469  0.2223 -0.1343
  285DOPC   H3R39238   8.159  11.879   3.049 -0.0769  0.1857  0.4771
  285DOPC   H3S39239   8.285  11.767   3.088  0.1405  1.3181 -0.2336
  285DOPC   C2439240   8.091  11.692   3.143  0.5365 -0.5175  0.0509
  285DOPC   H4R39241   8.103  11.583   3.128  0.8043 -0.0506 -4.5207
  285DOPC   H4S39242   7.984  11.703   3.115  0.8997  0.3701 -1.0831
  285DOPC   C2539243   8.116  11.727   3.292  0.3152 -0.2587  0.1508
  285DOPC   H5R39244   8.157  11.829   3.306  2.3086 -0.8450 -1.0023
  285DOPC   H5S39245   8.201  11.661   3.322  0.5064 -0.3100 -0.4865
  285DOPC   C2639246   7.991  11.709   3.385 -0.7154  0.2566  0.2421
  285DOPC   H6R39247   7.945  11.608   3.375  0.2862 -0.2796  0.8218
  285DOPC   H6S39248   7.907  11.774   3.354 -0.5417  0.7619  0.8271
  285DOPC   C2739249   8.013  11.734   3.532  0.6985 -0.1297  0.5519
  285DOPC   H7R39250   8.024  11.841   3.559 -0.8841 -0.2494  1.8510
  285DOPC   H7S39251   8.100  11.678   3.573  0.4582 -1.3837 -0.6004
  285DOPC   C2839252   7.891  11.687   3.608  0.2876  0.7960 -0.1747
  285DOPC   H8R39253   7.908  11.685   3.718 -0.7886  0.3054  0.0001
  285DOPC   H8S39254   7.858  11.584   3.581  1.3631  0.1014  0.9870
  285DOPC   C2939255   7.773  11.786   3.597 -0.8065  0.4432 -0.1523
  285DOPC   H9R39256   7.720  11.791   3.501 -1.3286 -0.5735  0.0673
  285DOPC  C21039257   7.741  11.889   3.678 -0.5596 -0.3141  0.0004
  285DOPC  H10R39258   7.664  11.958   3.640  1.2853  2.4614  0.9765
  285DOPC  C21139259   7.792  11.934   3.818  0.6944  0.7623  0.2031
  285DOPC  H11R39260   7.765  11.864   3.900  0.5786  0.2740 -0.2385
  285DOPC  H11S39261   7.737  12.024   3.852  1.4465  1.7978 -1.2197
  285DOPC  C21239262   7.948  11.963   3.811  0.3674  0.5250  0.5268
  285DOPC  H12R39263   7.966  12.027   3.722  1.4238  0.4050  0.6376
  285DOPC  H12S39264   7.993  11.863   3.789 -3.0998 -1.0051 -0.2302
  285DOPC  C21339265   8.003  12.031   3.938 -0.7419  0.1030  0.1651
  285DOPC  H13R39266   7.999  11.958   4.022  0.8531  0.6037  0.6940
  285DOPC  H13S39267   7.938  12.112   3.978 -1.5023 -0.0291 -0.7406
  285DOPC  C21439268   8.151  12.063   3.920  0.6275  0.6171  0.2278
  285DOPC  H14R39269   8.148  12.154   3.857  0.6426 -0.5078 -1.4681
  285DOPC  H14S39270   8.201  11.981   3.864 -1.2017 -0.3411 -0.0815
  285DOPC  C21539271   8.219  12.089   4.051  0.9631  0.1793 -0.3297
  285DOPC  H15R39272   8.327  12.109   4.032  1.5537 -1.7869  0.7345
  285DOPC  H15S39273   8.216  11.987   4.095  1.4036 -0.0540 -0.8350
  285DOPC  C21639274   8.154  12.199   4.139  0.5635  0.1415 -1.0129
  285DOPC  H16R39275   8.051  12.169   4.168  1.3508 -2.1826 -0.3907
  285DOPC  H16S39276   8.152  12.299   4.091  0.3662  2.3381  3.0836
  285DOPC  C21739277   8.216  12.215   4.284  0.3299 -0.3840  0.5544
  285DOPC  H17R39278   8.328  12.212   4.287  0.3652  0.8661  1.2301
  285DOPC  H17S39279   8.199  12.133   4.358  1.6467 -1.2165 -0.0143
  285DOPC  C21839280   8.162  12.349   4.348 -0.4303  0.7168 -0.5110
  285DOPC  H18R39281   8.056  12.351   4.382 -0.1660 -1.3605  0.6368
  285DOPC  H18S39282   8.191  12.430   4.279  0.8069 -0.5485 -1.5414
  285DOPC  H18T39283   8.214  12.343   4.446 -0.9876 -2.2001 -0.2909
  285DOPC   C3339284   7.511  11.702   3.023  0.0138 -0.3248  0.0201
  285DOPC   H3X39285   7.437  11.663   2.950 -0.2594  0.1827  0.0233
  285DOPC   H3Y39286   7.508  11.812   3.014  0.4897 -0.2916  0.2131
  285DOPC   C3439287   7.461  11.660   3.158  0.1772 -1.1445 -0.4658
  285DOPC   H4X39288   7.392  11.738   3.197  0.2872  0.4408 -3.1651
  285DOPC   H4Y39289   7.553  11.662   3.221 -0.4690 -1.9423  0.5369
  285DOPC   C3539290   7.381  11.536   3.152  0.1451  0.0740  0.1665
  285DOPC   H5X39291   7.439  11.450   3.114 -0.2562 -0.4050  0.6076
  285DOPC   H5Y39292   7.292  11.538   3.086  0.6987 -0.8051 -0.6247
  285DOPC   C3639293   7.348  11.495   3.291 -0.1184 -0.5842 -0.0699
  285DOPC   H6X39294   7.438  11.495   3.357 -0.8623  1.1661  1.0161
  285DOPC   H6Y39295   7.273  11.564   3.337 -0.5523 -1.6111  0.8066
  285DOPC   C3739296   7.274  11.360   3.286  0.1860  0.0676 -0.6364
  285DOPC   H7X39297   7.187  11.371   3.218 -0.2421  0.8708  0.0189
  285DOPC   H7Y39298   7.345  11.283   3.248  0.2108  0.0543 -0.5639
  285DOPC   C3839299   7.225  11.301   3.421 -0.3319 -0.5188  0.6434
  285DOPC   H8X39300   7.313  11.267   3.480  0.1272  0.8985  0.7962
  285DOPC   H8Y39301   7.170  11.210   3.389 -0.7893  0.3406 -1.1458
  285DOPC   C3939302   7.141  11.392   3.507  0.2835 -0.4796 -0.1018
  285DOPC   H9X39303   7.032  11.383   3.495  0.2007 -1.4155  1.1874
  285DOPC  C31039304   7.191  11.475   3.604 -0.0395  0.1152  0.1617
  285DOPC  H10X39305   7.115  11.533   3.659 -1.1285  0.4952 -1.6466
  285DOPC  C31139306   7.336  11.500   3.642  0.5138  0.2645  0.4530
  285DOPC  H11X39307   7.365  11.607   3.649  2.1185  0.2009 -3.0247
  285DOPC  H11Y39308   7.402  11.462   3.561  0.4150 -0.6689  0.8070
  285DOPC  C31239309   7.377  11.435   3.777 -0.2941  0.2952  0.1231
  285DOPC  H12X39310   7.389  11.327   3.754 -1.2380  0.1767  0.1436
  285DOPC  H12Y39311   7.304  11.464   3.856 -1.4022  0.3938 -0.9156
  285DOPC  C31339312   7.505  11.499   3.820 -0.4104 -0.0510  0.6145
  285DOPC  H13X39313   7.574  11.519   3.735  1.5587 -0.5547  1.9962
  285DOPC  H13Y39314   7.488  11.598   3.866  0.0795 -0.2760  1.2968
  285DOPC  C31439315   7.595  11.421   3.924  0.2207 -0.3477  0.0416
  285DOPC  H14X39316   7.618  11.320   3.885  0.0905 -0.7822  1.0483
  285DOPC  H14Y39317   7.688  11.476   3.948 -0.9061  1.9629 -0.5646
  285DOPC  C31539318   7.511  11.396   4.052  0.6611  0.5134 -0.6284
  285DOPC  H15X39319   7.425  11.332   4.024  0.8154  0.2025 -0.3995
  285DOPC  H15Y39320   7.469  11.489   4.095  0.1929  0.7733 -1.6331
  285DOPC  C31639321   7.600  11.317   4.155 -0.8813  0.1670  0.0855
  285DOPC  H16X39322   7.647  11.231   4.104  2.4481  0.1099  2.8374
  285DOPC  H16Y39323   7.684  11.373   4.202 -0.9421  0.0204  0.3685
  285DOPC  C31739324   7.515  11.257   4.270 -0.4871  0.0022 -0.0542
  285DOPC  H17X39325   7.440  11.187   4.229  0.6605 -1.6420  0.5205
  285DOPC  H17Y39326   7.580  11.189   4.330 -0.1509 -0.6779 -1.1636
  285DOPC  C31839327   7.437  11.359   4.352  0.8280 -0.0036  0.3149
  285DOPC  H18X39328   7.402  11.300   4.439 -1.7582 -1.7977 -1.7743
  285DOPC  H18Y39329   7.495  11.450   4.381 -0.6392  0.6779  1.2279
  285DOPC  H18Z39330   7.346  11.393   4.298 -0.2897 -1.8032  0.9659
  286DOPC     N39331   2.092  12.169   2.225 -0.2885 -0.1590 -0.5185
  286DOPC   C1239332   2.205  12.072   2.170  0.1774 -0.1859  0.2614
  286DOPC  H12A39333   2.299  12.121   2.188  0.2278  0.7327 -2.1503
  286DOPC  H12B39334   2.194  12.077   2.063 -1.8690 -3.2542  0.2051
  286DOPC   C1339335   2.102  12.302   2.168  0.0430  0.0145  0.0466
  286DOPC  H13A39336   2.200  12.346   2.170 -0.1506  0.7259 -2.5931
  286DOPC  H13B39337   2.075  12.302   2.063  2.2401 -0.0329 -0.5694
  286DOPC  H13C39338   2.038  12.370   2.222 -1.0985 -0.6872 -0.3707
  286DOPC   C1439339   2.095  12.175   2.371  0.0916  0.0546 -0.6805
  286DOPC  H14A39340   2.190  12.221   2.395  0.0127 -0.0267 -0.2041
  286DOPC  H14B39341   2.024  12.242   2.416  1.6858  1.7857 -0.6364
  286DOPC  H14C39342   2.075  12.084   2.425  0.5232  0.2339 -0.2068
  286DOPC   C1539343   1.958  12.112   2.178  0.5152 -0.6138 -0.1258
  286DOPC  H15A39344   1.956  12.006   2.198  1.4034 -0.5079  0.6232
  286DOPC  H15B39345   1.947  12.126   2.072 -3.2053 -1.9712 -0.0517
  286DOPC  H15C39346   1.866  12.149   2.221  0.1414 -2.1003  0.3930
  286DOPC   C1139347   2.210  11.921   2.211 -0.2481  0.8907  0.1136
  286DOPC  H11A39348   2.302  11.880   2.164  0.0216  0.5088  0.9471
  286DOPC  H11B39349   2.227  11.918   2.321 -0.4067 -2.2210  0.1606
  286DOPC     P39350   2.077  11.704   2.156  0.1023 -0.0760 -0.0972
  286DOPC   O1339351   2.075  11.674   2.012  0.2554 -0.4312 -0.3249
  286DOPC   O1439352   1.961  11.661   2.232  0.3476  1.0039  0.3562
  286DOPC   O1239353   2.083  11.856   2.183  0.2043 -0.1926 -0.8527
  286DOPC   O1139354   2.214  11.642   2.216  0.0456 -0.0836 -0.6517
  286DOPC    C139355   2.242  11.655   2.357 -0.0105  0.0024 -0.3881
  286DOPC    HA39356   2.194  11.737   2.415 -1.5081  0.3516 -2.0228
  286DOPC    HB39357   2.350  11.671   2.373 -0.3253  2.4414 -0.3902
  286DOPC    C239358   2.198  11.525   2.429 -0.1731  0.1454  0.0655
  286DOPC    HS39359   2.089  11.535   2.449 -0.5687 -0.0050 -1.8509
  286DOPC   O2139360   2.276  11.514   2.554 -0.7087  0.1444 -0.4600
  286DOPC   C2139361   2.246  11.601   2.650 -0.7497  0.5362  0.4410
  286DOPC   O2239362   2.171  11.698   2.649 -0.3187 -0.3203 -0.1909
  286DOPC   C2239363   2.336  11.576   2.773 -0.0300  0.2279 -0.7586
  286DOPC   H2R39364   2.434  11.626   2.757  0.0616 -0.2327 -1.6614
  286DOPC   H2S39365   2.358  11.469   2.793  2.2129  0.3400 -2.2043
  286DOPC    C339366   2.225  11.398   2.344  0.1932 -0.3711 -0.0543
  286DOPC    HX39367   2.328  11.401   2.303 -0.0709  0.3173 -0.6926
  286DOPC    HY39368   2.168  11.398   2.248  0.0807  0.5555  0.0044
  286DOPC   O3139369   2.196  11.278   2.421  0.5175 -0.2668  0.1382
  286DOPC   C3139370   2.070  11.236   2.428 -0.1165  0.6822  1.0516
  286DOPC   O3239371   1.978  11.281   2.358 -0.1826 -0.0097 -0.5217
  286DOPC   C3239372   2.058  11.134   2.535  0.0847  0.1781  0.5958
  286DOPC   H2X39373   1.981  11.060   2.503 -2.3445  2.3713  1.0690
  286DOPC   H2Y39374   2.155  11.080   2.547  0.4910  0.8685  0.4624
  286DOPC   C2339375   2.282  11.648   2.900  0.0618 -0.5160 -0.2784
  286DOPC   H3R39376   2.178  11.618   2.925 -1.4242  3.1602 -1.4043
  286DOPC   H3S39377   2.275  11.757   2.880 -0.2453  0.1352  2.8515
  286DOPC   C2439378   2.366  11.626   3.023 -0.1406 -0.1906  0.5998
  286DOPC   H4R39379   2.460  11.682   3.003 -0.4962  1.0937  2.2161
  286DOPC   H4S39380   2.378  11.516   3.034  0.5214 -0.2720 -0.7741
  286DOPC   C2539381   2.303  11.692   3.147 -0.1309 -0.1115 -0.1875
  286DOPC   H5R39382   2.241  11.613   3.195 -0.7406 -0.1742 -1.0610
  286DOPC   H5S39383   2.244  11.785   3.131 -0.5624  0.5348  3.9504
  286DOPC   C2639384   2.411  11.742   3.249 -0.3187 -0.1880 -0.1356
  286DOPC   H6R39385   2.484  11.808   3.199  1.1008 -1.1743  0.5778
  286DOPC   H6S39386   2.477  11.660   3.284  1.0865  1.1792  0.5327
  286DOPC   C2739387   2.357  11.818   3.373  0.2900 -0.0751  0.7522
  286DOPC   H7R39388   2.310  11.909   3.331 -1.5481 -1.5407 -0.5075
  286DOPC   H7S39389   2.443  11.848   3.438  0.9364  0.9520 -0.5297
  286DOPC   C2839390   2.255  11.727   3.443  1.2499  1.6538  0.2434
  286DOPC   H8R39391   2.178  11.687   3.374  1.9516  0.6857  0.0058
  286DOPC   H8S39392   2.196  11.787   3.516 -1.3015 -2.4079  1.8624
  286DOPC   C2939393   2.324  11.613   3.513 -0.3442 -0.2888 -0.6803
  286DOPC   H9R39394   2.329  11.517   3.459 -2.1063 -1.1215  0.5522
  286DOPC  C21039395   2.391  11.621   3.634 -0.5004  0.2223 -0.0400
  286DOPC  H10R39396   2.420  11.527   3.684 -0.4508  1.3110  2.0991
  286DOPC  C21139397   2.405  11.739   3.717  0.0083 -0.0588 -0.3023
  286DOPC  H11R39398   2.401  11.833   3.658  1.5655  0.1973 -0.0440
  286DOPC  H11S39399   2.504  11.731   3.767  0.7898 -0.6247 -1.8652
  286DOPC  C21239400   2.288  11.720   3.812 -0.0901  0.1068  0.3979
  286DOPC  H12R39401   2.283  11.627   3.873 -2.3232  1.1287  1.9273
  286DOPC  H12S39402   2.192  11.720   3.756  0.0410  0.6605  0.1662
  286DOPC  C21339403   2.293  11.836   3.907 -0.5913 -0.0968  0.1917
  286DOPC  H13R39404   2.188  11.870   3.915 -0.3416  0.3819  1.8779
  286DOPC  H13S39405   2.348  11.930   3.882  0.1401 -0.4991  0.2685
  286DOPC  C21439406   2.337  11.792   4.043 -0.4234  0.0505 -0.2851
  286DOPC  H14R39407   2.440  11.751   4.045 -0.4443  0.0339  1.4113
  286DOPC  H14S39408   2.271  11.716   4.090 -2.8585  1.2117 -1.5669
  286DOPC  C21539409   2.343  11.906   4.149  0.2045 -0.3600 -0.2327
  286DOPC  H15R39410   2.241  11.912   4.192  0.5021 -2.6560  0.9625
  286DOPC  H15S39411   2.372  12.005   4.108  0.5647  0.3390  1.5978
  286DOPC  C21639412   2.429  11.861   4.272 -0.5046  0.3510  0.2381
  286DOPC  H16R39413   2.430  11.751   4.284  2.5912  0.4372  1.7587
  286DOPC  H16S39414   2.403  11.907   4.370 -3.6903  1.5976 -1.0169
  286DOPC  C21739415   2.582  11.907   4.248  0.9436 -0.5124 -0.1534
  286DOPC  H17R39416   2.575  12.017   4.241  1.1862 -0.5264 -0.7038
  286DOPC  H17S39417   2.605  11.864   4.148  1.9658 -1.4488  0.4595
  286DOPC  C21839418   2.693  11.868   4.347  0.9341  0.3216 -0.4730
  286DOPC  H18R39419   2.797  11.893   4.316  0.9326  1.0628  0.0842
  286DOPC  H18S39420   2.677  11.762   4.374  1.1347  0.2460 -0.6515
  286DOPC  H18T39421   2.687  11.934   4.436 -0.6109  0.6883 -0.8168
  286DOPC   C3339422   2.001  11.200   2.657 -0.2603  0.5233 -0.5514
  286DOPC   H3X39423   1.957  11.116   2.715 -0.7553  1.2497  0.1466
  286DOPC   H3Y39424   1.918  11.268   2.629 -1.8854 -0.9390  0.5275
  286DOPC   C3439425   2.110  11.252   2.755 -0.2880 -0.1054  0.2727
  286DOPC   H4X39426   2.172  11.331   2.707  2.7357 -4.0323 -3.0124
  286DOPC   H4Y39427   2.187  11.175   2.779  3.1714  2.6727 -0.9862
  286DOPC   C3539428   2.063  11.307   2.896 -0.7579  0.2529  0.7508
  286DOPC   H5X39429   2.149  11.333   2.962 -0.6081 -0.2477  0.7612
  286DOPC   H5Y39430   2.022  11.217   2.947  0.9573 -1.2510 -0.3982
  286DOPC   C3639431   1.960  11.424   2.890 -0.3484  0.1827  0.0413
  286DOPC   H6X39432   2.006  11.510   2.835  0.4175  0.3663  0.9346
  286DOPC   H6Y39433   1.874  11.386   2.831  0.4912  0.4014 -1.3821
  286DOPC   C3739434   1.938  11.469   3.036 -0.2923  0.7007 -0.0495
  286DOPC   H7X39435   1.890  11.385   3.092 -1.4705  0.8028 -0.8763
  286DOPC   H7Y39436   2.029  11.493   3.095 -0.7861 -0.3239  1.2044
  286DOPC   C3839437   1.827  11.584   3.033 -0.7490  0.9125 -0.3846
  286DOPC   H8X39438   1.790  11.598   3.137 -0.4108 -0.7035 -0.0179
  286DOPC   H8Y39439   1.741  11.550   2.973  0.9255 -1.9077 -1.3541
  286DOPC   C3939440   1.895  11.708   2.985 -0.3093 -0.2790  0.3153
  286DOPC   H9X39441   1.915  11.707   2.877  1.3277 -1.3356  0.5983
  286DOPC  C31039442   1.949  11.814   3.064  0.3166 -0.0273 -0.6354
  286DOPC  H10X39443   2.003  11.892   3.008 -0.3401  0.3158 -0.7903
  286DOPC  C31139444   1.968  11.829   3.213  0.4230  1.0320  0.0809
  286DOPC  H11X39445   2.044  11.908   3.226  0.0750  1.6041 -1.2460
  286DOPC  H11Y39446   1.988  11.730   3.260 -1.2950  0.6585  0.0945
  286DOPC  C31239447   1.847  11.871   3.298 -0.1590  0.9355  0.3640
  286DOPC  H12X39448   1.764  11.799   3.281  0.3783  0.8883 -2.5206
  286DOPC  H12Y39449   1.809  11.971   3.266  1.2467  1.9664  1.7918
  286DOPC  C31339450   1.875  11.873   3.449 -0.2354  0.1322  0.4485
  286DOPC  H13X39451   1.919  11.775   3.477  0.3582 -0.3882 -2.0435
  286DOPC  H13Y39452   1.963  11.937   3.467 -0.7731  1.3953 -1.1007
  286DOPC  C31439453   1.759  11.919   3.534  0.0267  0.3847  0.2355
  286DOPC  H14X39454   1.734  12.021   3.499 -1.5415  0.6690  2.0076
  286DOPC  H14Y39455   1.668  11.860   3.512 -0.5728  1.3418  0.1174
  286DOPC  C31539456   1.788  11.921   3.685  0.2834 -0.2913 -0.5525
  286DOPC  H15X39457   1.691  11.960   3.724  1.5229  0.0551  2.3920
  286DOPC  H15Y39458   1.855  12.006   3.707  1.5896 -1.4504  0.0535
  286DOPC  C31639459   1.823  11.782   3.754  0.1197 -0.8339 -0.0980
  286DOPC  H16X39460   1.741  11.715   3.721  0.7443 -0.6482 -2.2030
  286DOPC  H16Y39461   1.911  11.728   3.713 -1.0543 -2.1259 -0.9878
  286DOPC  C31739462   1.851  11.790   3.907  0.1038  0.6187  0.2055
  286DOPC  H17X39463   1.892  11.891   3.929  3.1777 -0.2086 -1.1403
  286DOPC  H17Y39464   1.749  11.788   3.950 -0.0977  2.9262 -0.0252
  286DOPC  C31839465   1.930  11.681   3.978  0.1288  0.2468  0.3732
  286DOPC  H18X39466   1.969  11.722   4.074  1.8960 -3.8625  1.6210
  286DOPC  H18Y39467   1.869  11.591   4.004 -0.1410 -0.2926 -1.8850
  286DOPC  H18Z39468   2.015  11.634   3.923 -1.3705 -1.2806 -0.7546
  287DOPC     N39469   6.844   9.784   1.730  0.7311  0.1291  0.0793
  287DOPC   C1239470   6.947   9.746   1.836 -0.8429 -0.2173 -0.7848
  287DOPC  H12A39471   6.988   9.838   1.877 -1.0894  0.8071 -2.7444
  287DOPC  H12B39472   7.018   9.685   1.784 -1.4761 -3.2880  1.6226
  287DOPC   C1339473   6.782   9.656   1.684 -0.0494 -0.3387 -0.1979
  287DOPC  H13A39474   6.715   9.629   1.765  0.3295  0.8105  0.5262
  287DOPC  H13B39475   6.724   9.671   1.595  0.5555  0.7832 -0.4183
  287DOPC  H13C39476   6.847   9.570   1.670 -0.4838 -0.3527 -2.3843
  287DOPC   C1439477   6.906   9.855   1.623  0.2565 -0.0049 -0.3417
  287DOPC  H14A39478   7.001   9.809   1.598  0.9809 -0.9580  3.4840
  287DOPC  H14B39479   6.842   9.852   1.536  0.7799 -0.4038 -0.7213
  287DOPC  H14C39480   6.936   9.955   1.653 -0.0313 -0.0707  0.1720
  287DOPC   C1539481   6.745   9.872   1.795  0.6113 -0.3086  0.5535
  287DOPC  H15A39482   6.662   9.892   1.729  1.1027 -0.1193 -0.0138
  287DOPC  H15B39483   6.791   9.966   1.821  2.2223 -0.5042 -1.4004
  287DOPC  H15C39484   6.714   9.833   1.891  0.0715  2.9040  1.7931
  287DOPC   C1139485   6.899   9.660   1.955  0.3175  0.5655 -0.2158
  287DOPC  H11A39486   6.972   9.659   2.039 -0.0095  2.0065  0.1076
  287DOPC  H11B39487   6.807   9.706   1.996 -0.2677  0.2189 -1.0876
  287DOPC     P39488   6.997   9.426   1.899  0.3295  0.4454 -0.0837
  287DOPC   O1339489   7.100   9.479   1.813 -0.6853 -0.5105  0.0560
  287DOPC   O1439490   6.929   9.301   1.859  0.1715 -0.2313 -0.4870
  287DOPC   O1239491   6.877   9.528   1.910 -0.0884  0.2960  0.4756
  287DOPC   O1139492   7.067   9.398   2.041 -0.1386 -0.5023  0.3739
  287DOPC    C139493   6.994   9.412   2.173 -0.3916  0.0718 -0.0583
  287DOPC    HA39494   6.951   9.313   2.201  0.3149 -0.0213  0.7249
  287DOPC    HB39495   6.911   9.484   2.158 -0.3650 -0.3375 -2.7152
  287DOPC    C239496   7.102   9.457   2.279 -0.0490 -0.7448  0.0376
  287DOPC    HS39497   7.127   9.560   2.244  0.5059 -0.9009 -0.0346
  287DOPC   O2139498   7.213   9.360   2.270 -0.2209  0.5381 -0.1525
  287DOPC   C2139499   7.325   9.392   2.325 -0.2830 -0.0158  0.3470
  287DOPC   O2239500   7.368   9.495   2.367 -0.1793 -0.4362 -0.5252
  287DOPC   C2239501   7.401   9.265   2.367 -0.0182 -0.1406  0.7302
  287DOPC   H2R39502   7.486   9.288   2.434  0.0715  0.0118  0.5663
  287DOPC   H2S39503   7.434   9.209   2.277  0.8393  0.7636  0.4672
  287DOPC    C339504   7.033   9.460   2.415  0.1815 -0.1603  0.2723
  287DOPC    HX39505   6.990   9.364   2.451  1.0780  0.2037  2.4404
  287DOPC    HY39506   6.937   9.516   2.405  0.8339  1.0042  0.4120
  287DOPC   O3139507   7.127   9.525   2.507  0.1249 -0.0392 -0.1349
  287DOPC   C3139508   7.108   9.657   2.517 -0.2451 -0.4780 -0.6345
  287DOPC   O3239509   7.027   9.726   2.457 -0.8369  0.0245 -0.0233
  287DOPC   C3239510   7.231   9.714   2.598  0.7390  0.2233  0.0040
  287DOPC   H2X39511   7.230   9.659   2.694 -0.0357 -1.0749 -0.7219
  287DOPC   H2Y39512   7.324   9.694   2.540  2.7531 -0.5589  3.2325
  287DOPC   C2339513   7.317   9.156   2.449  0.3604 -0.1000  0.5784
  287DOPC   H3R39514   7.218   9.130   2.405  0.8191 -1.1992  0.1738
  287DOPC   H3S39515   7.287   9.193   2.549  0.2086 -1.0309  0.8804
  287DOPC   C2439516   7.392   9.029   2.478 -0.0293  0.1892  0.0340
  287DOPC   H4R39517   7.484   9.069   2.525 -0.5770  2.0563 -0.4104
  287DOPC   H4S39518   7.417   8.982   2.380 -0.3044  0.2136 -0.0485
  287DOPC   C2539519   7.319   8.933   2.579  0.5738 -0.5856 -0.4666
  287DOPC   H5R39520   7.361   8.831   2.573 -0.0308 -0.8366 -0.5340
  287DOPC   H5S39521   7.212   8.919   2.553 -0.4037  1.3415  2.0761
  287DOPC   C2639522   7.327   8.988   2.723 -0.1047 -0.1452 -0.5963
  287DOPC   H6R39523   7.250   8.938   2.786  0.4007  0.9351  0.9600
  287DOPC   H6S39524   7.294   9.094   2.727 -0.9595 -0.4330  0.7787
  287DOPC   C2739525   7.470   8.978   2.787 -0.0644  0.0430 -0.0608
  287DOPC   H7R39526   7.518   9.077   2.769  0.9432 -0.1845  1.2276
  287DOPC   H7S39527   7.531   8.909   2.726  0.9427  0.5107  0.4009
  287DOPC   C2839528   7.481   8.953   2.939 -0.7157 -0.1650  0.0404
  287DOPC   H8R39529   7.590   8.941   2.956 -1.0780 -1.4321  1.8042
  287DOPC   H8S39530   7.442   8.852   2.965  0.0562 -0.7453 -0.9949
  287DOPC   C2939531   7.417   9.059   3.028  0.0326  0.2771  0.4079
  287DOPC   H9R39532   7.313   9.083   3.002  0.4650  2.7766  0.7827
  287DOPC  C21039533   7.475   9.128   3.125 -0.8935 -0.7258  0.3216
  287DOPC  H10R39534   7.414   9.201   3.180  0.0619  0.4093 -0.0938
  287DOPC  C21139535   7.621   9.095   3.170 -0.0493 -0.5205 -0.1982
  287DOPC  H11R39536   7.656   8.994   3.142 -1.1233 -1.5721  2.0352
  287DOPC  H11S39537   7.626   9.099   3.281 -0.6585  0.4794 -0.1939
  287DOPC  C21239538   7.739   9.193   3.122 -0.1404  0.0633 -0.4355
  287DOPC  H12R39539   7.739   9.181   3.011  1.4072 -0.4778 -0.3988
  287DOPC  H12S39540   7.833   9.165   3.174 -0.3502 -0.6017 -0.4154
  287DOPC  C21339541   7.716   9.340   3.151 -0.2505  0.3475 -0.1534
  287DOPC  H13R39542   7.715   9.344   3.262  0.7854  0.4120 -0.1433
  287DOPC  H13S39543   7.618   9.360   3.102 -0.2846  1.1582  0.2237
  287DOPC  C21439544   7.824   9.438   3.108  0.6474 -0.1089  0.5879
  287DOPC  H14R39545   7.862   9.427   3.004 -2.7333 -0.0235 -0.7668
  287DOPC  H14S39546   7.917   9.401   3.157 -0.7930 -3.2019  1.2080
  287DOPC  C21539547   7.788   9.588   3.142 -0.9598 -0.2745  0.3001
  287DOPC  H15R39548   7.683   9.615   3.121 -0.5429  1.2068  0.0098
  287DOPC  H15S39549   7.859   9.648   3.081 -2.0605 -0.7278 -1.4678
  287DOPC  C21639550   7.803   9.631   3.291 -0.4803 -0.2377 -0.0213
  287DOPC  H16R39551   7.734   9.572   3.355  1.6082 -1.5829  1.1160
  287DOPC  H16S39552   7.770   9.735   3.307  0.4968  0.0642  0.0836
  287DOPC  C21739553   7.945   9.616   3.348  0.2072  0.0667  0.0012
  287DOPC  H17R39554   8.011   9.683   3.289 -0.4133  0.5603 -0.1455
  287DOPC  H17S39555   7.975   9.511   3.332 -1.0598 -0.0685 -1.7555
  287DOPC  C21839556   7.960   9.667   3.489  0.2913  0.1273 -0.3610
  287DOPC  H18R39557   7.883   9.623   3.556 -0.0184  2.1818  0.7389
  287DOPC  H18S39558   7.948   9.777   3.500  0.4093  0.0327  0.8685
  287DOPC  H18T39559   8.060   9.650   3.534  0.5835 -1.2422 -1.4768
  287DOPC   C3339560   7.224   9.869   2.610  0.2441 -0.6713  0.6406
  287DOPC   H3X39561   7.199   9.905   2.508  1.6118 -1.4431 -0.0091
  287DOPC   H3Y39562   7.329   9.900   2.631  0.5270 -1.9383  1.2143
  287DOPC   C3439563   7.124   9.909   2.719 -0.4176 -0.7142 -0.0689
  287DOPC   H4X39564   7.148   9.862   2.817  0.7547  0.9483  0.4870
  287DOPC   H4Y39565   7.016   9.887   2.702  0.0354 -2.8545 -0.5202
  287DOPC   C3539566   7.131  10.058   2.726 -0.4102  0.1309 -0.2491
  287DOPC   H5X39567   7.129  10.087   2.619  1.0682  0.5042 -0.1900
  287DOPC   H5Y39568   7.231  10.086   2.765 -0.9584  1.3400  0.3372
  287DOPC   C3639569   7.021  10.120   2.807  0.9446  0.4873  0.0214
  287DOPC   H6X39570   7.004  10.226   2.778 -1.2232  0.0397 -0.5325
  287DOPC   H6Y39571   6.925  10.085   2.763  2.0307 -1.2882 -1.0902
  287DOPC   C3739572   7.030  10.089   2.960  0.2973 -0.6857  0.0448
  287DOPC   H7X39573   7.010   9.981   2.969  0.8046 -0.8090 -0.2621
  287DOPC   H7Y39574   7.128  10.117   3.004  0.4448  0.8892 -1.1503
  287DOPC   C3839575   6.933  10.166   3.049  0.0660 -0.1409  0.1850
  287DOPC   H8X39576   6.961  10.272   3.030 -0.8378  0.1276  0.2938
  287DOPC   H8Y39577   6.961  10.142   3.154  0.4128  0.9431  0.3511
  287DOPC   C3939578   6.790  10.137   3.012 -0.8037  0.0589 -0.4324
  287DOPC   H9X39579   6.773  10.091   2.913 -0.3623 -0.5895 -0.2117
  287DOPC  C31039580   6.684  10.179   3.084 -0.4613 -0.1567 -0.6573
  287DOPC  H10X39581   6.581  10.142   3.073 -1.4488  1.3184  2.4756
  287DOPC  C31139582   6.690  10.248   3.223 -0.4881  1.0261 -0.3834
  287DOPC  H11X39583   6.595  10.304   3.234 -0.3509  1.2442 -0.3098
  287DOPC  H11Y39584   6.777  10.315   3.235  1.6970 -1.6530 -0.1557
  287DOPC  C31239585   6.697  10.149   3.341  0.3715  0.0075 -0.5986
  287DOPC  H12X39586   6.791  10.090   3.343 -0.0210 -0.6078  0.0714
  287DOPC  H12Y39587   6.614  10.077   3.322  0.3931 -0.7376  1.7587
  287DOPC  C31339588   6.673  10.227   3.473  0.2743  0.0177 -0.4058
  287DOPC  H13X39589   6.751  10.306   3.461 -1.4082  1.5777 -1.6267
  287DOPC  H13Y39590   6.572  10.272   3.481 -0.0946 -1.0866  2.8016
  287DOPC  C31439591   6.695  10.137   3.592 -0.5934 -0.0890 -0.0065
  287DOPC  H14X39592   6.765  10.055   3.568  1.2553  1.3479  0.2189
  287DOPC  H14Y39593   6.737  10.191   3.679  0.9295 -1.5076  0.1772
  287DOPC  C31539594   6.569  10.075   3.641  0.0506 -0.2801  0.2471
  287DOPC  H15X39595   6.490  10.151   3.660  1.2337  1.4887 -1.4990
  287DOPC  H15Y39596   6.591  10.033   3.741 -0.1702  1.3468  1.0123
  287DOPC  C31639597   6.524   9.955   3.559  0.0797 -0.0828 -0.5642
  287DOPC  H16X39598   6.478  10.002   3.470  0.8037  0.0489 -0.8773
  287DOPC  H16Y39599   6.604   9.888   3.521 -1.4964 -1.3735 -1.7342
  287DOPC  C31739600   6.434   9.861   3.641 -0.0175 -0.3055  0.5199
  287DOPC  H17X39601   6.391   9.794   3.563 -1.6006  0.8143  0.3832
  287DOPC  H17Y39602   6.498   9.791   3.699  2.3440 -1.0130 -2.6465
  287DOPC  C31839603   6.316   9.930   3.717  0.0404 -0.5328 -0.1281
  287DOPC  H18X39604   6.234   9.860   3.744  0.5577 -0.0218  3.3518
  287DOPC  H18Y39605   6.351   9.982   3.809 -2.0677 -0.1724  0.5056
  287DOPC  H18Z39606   6.276  10.008   3.649  2.5305 -0.9100 -2.1853
  288DOPC     N39607   6.194   3.455   1.515  0.0158 -0.6573 -0.4280
  288DOPC   C1239608   6.117   3.376   1.616  0.2632 -0.1781 -0.0692
  288DOPC  H12A39609   6.136   3.274   1.587 -1.9726 -0.1914 -1.7678
  288DOPC  H12B39610   6.012   3.389   1.595  0.5244 -0.9227 -2.1677
  288DOPC   C1339611   6.153   3.415   1.375 -0.1309 -0.5428 -0.2371
  288DOPC  H13A39612   6.048   3.422   1.353  0.0674  0.6348 -0.9063
  288DOPC  H13B39613   6.205   3.484   1.310 -0.5051 -0.8104 -0.8252
  288DOPC  H13C39614   6.194   3.318   1.352  0.4934 -0.2581 -0.3764
  288DOPC   C1439615   6.342   3.429   1.514 -0.9761  0.0031 -0.2328
  288DOPC  H14A39616   6.392   3.482   1.434 -0.5060  0.2475  0.2192
  288DOPC  H14B39617   6.389   3.451   1.608 -2.2810  1.5926  0.1066
  288DOPC  H14C39618   6.370   3.325   1.505 -0.2434  0.2036 -0.3366
  288DOPC   C1539619   6.178   3.604   1.533 -0.4334  0.3042 -0.2711
  288DOPC  H15A39620   6.194   3.651   1.629 -2.2373  0.9866 -0.2621
  288DOPC  H15B39621   6.085   3.649   1.504  0.4336  1.0109 -2.1175
  288DOPC  H15C39622   6.261   3.639   1.474  0.3636 -0.4969  0.3431
  288DOPC   C1139623   6.147   3.392   1.762 -0.3804 -0.0173  0.5998
  288DOPC  H11A39624   6.098   3.309   1.817  0.0081  0.0892  1.1097
  288DOPC  H11B39625   6.258   3.386   1.772  0.0650  1.9181 -2.0806
  288DOPC     P39626   6.167   3.615   1.910  0.0657  0.3832  0.3775
  288DOPC   O1339627   6.074   3.720   1.955  0.0399 -0.7141 -0.2035
  288DOPC   O1439628   6.296   3.651   1.845  0.6813  0.0536 -0.0790
  288DOPC   O1239629   6.096   3.518   1.802  0.3793 -0.1277  0.0577
  288DOPC   O1139630   6.196   3.516   2.033  0.5044 -0.0116 -0.0684
  288DOPC    C139631   6.072   3.467   2.093  0.1710 -0.3848  0.0926
  288DOPC    HA39632   6.008   3.405   2.026  2.3677 -1.7004 -0.9029
  288DOPC    HB39633   6.015   3.550   2.140  0.2861 -0.1626 -0.1629
  288DOPC    C239634   6.094   3.372   2.212 -0.3905 -0.0810 -0.6585
  288DOPC    HS39635   5.997   3.361   2.265 -0.3868  1.7991 -0.1979
  288DOPC   O2139636   6.197   3.418   2.301  0.3040  0.2092  0.1182
  288DOPC   C2139637   6.155   3.518   2.388 -0.7618  0.1615  0.2403
  288DOPC   O2239638   6.044   3.566   2.393  0.2651 -0.0274 -1.1432
  288DOPC   C2239639   6.279   3.565   2.473  0.2558 -0.2062 -0.0866
  288DOPC   H2R39640   6.296   3.670   2.441 -1.8746  0.3669  0.5324
  288DOPC   H2S39641   6.371   3.506   2.451  0.8237  0.6470 -0.0556
  288DOPC    C339642   6.135   3.228   2.161 -0.1499 -0.2621 -0.2276
  288DOPC    HX39643   6.201   3.246   2.073 -2.5070  0.5227 -1.9220
  288DOPC    HY39644   6.039   3.184   2.129  0.1305 -2.8077  2.1283
  288DOPC   O3139645   6.213   3.144   2.245 -0.3019  0.7496  0.1640
  288DOPC   C3139646   6.156   3.100   2.351  0.0278 -0.8179 -0.1466
  288DOPC   O3239647   6.040   3.134   2.387 -0.3539 -0.4064 -0.1016
  288DOPC   C3239648   6.248   3.002   2.411 -0.5008  1.1144  0.0859
  288DOPC   H2X39649   6.229   2.902   2.366  3.9488 -0.0540  0.3125
  288DOPC   H2Y39650   6.356   3.009   2.384 -0.9371  1.8264 -1.6358
  288DOPC   C2339651   6.261   3.563   2.626 -0.3577 -0.2762  0.1537
  288DOPC   H3R39652   6.154   3.588   2.648 -0.0913  1.2524 -0.1651
  288DOPC   H3S39653   6.325   3.639   2.677  0.9449 -0.3738 -1.3000
  288DOPC   C2439654   6.313   3.434   2.699 -0.1721  0.2336 -0.6584
  288DOPC   H4R39655   6.423   3.427   2.683  0.1107 -0.0285  1.2406
  288DOPC   H4S39656   6.264   3.351   2.643  0.6407 -1.4595  1.0128
  288DOPC   C2539657   6.274   3.427   2.848  0.1391 -0.3089  0.4893
  288DOPC   H5R39658   6.168   3.455   2.867 -0.3465 -0.9912 -1.0608
  288DOPC   H5S39659   6.339   3.498   2.902  1.0929 -1.7571  1.3056
  288DOPC   C2639660   6.304   3.297   2.917  0.0105 -0.3073 -0.0601
  288DOPC   H6R39661   6.413   3.282   2.907  0.4021  1.4077  1.1747
  288DOPC   H6S39662   6.255   3.216   2.858 -1.0949  0.2373  0.0827
  288DOPC   C2739663   6.257   3.292   3.065 -0.8334 -0.0899 -0.2332
  288DOPC   H7R39664   6.152   3.327   3.076 -0.4271  1.1524 -0.2159
  288DOPC   H7S39665   6.317   3.362   3.126  0.8954 -1.8498  0.1938
  288DOPC   C2839666   6.260   3.163   3.135 -0.2337  0.2124 -0.2741
  288DOPC   H8R39667   6.228   3.174   3.241 -1.2277 -1.5505 -0.3484
  288DOPC   H8S39668   6.366   3.128   3.140 -0.7176 -1.3855 -0.6170
  288DOPC   C2939669   6.184   3.046   3.071  0.1219  0.2741  0.6750
  288DOPC   H9R39670   6.201   3.040   2.963 -2.6275 -0.2886  0.2092
  288DOPC  C21039671   6.089   2.973   3.127  0.2814  0.5000  0.2419
  288DOPC  H10R39672   6.062   2.883   3.070 -1.3609 -0.5406  2.4997
  288DOPC  C21139673   6.050   2.969   3.276 -0.3528 -0.1453 -0.3090
  288DOPC  H11R39674   5.961   3.035   3.281  0.3096  1.0525 -2.6598
  288DOPC  H11S39675   6.127   3.008   3.347 -1.6022 -0.0019  1.0079
  288DOPC  C21239676   6.005   2.833   3.333  0.1090  0.1975 -0.3530
  288DOPC  H12R39677   6.086   2.764   3.300  0.4263  0.7536 -0.7616
  288DOPC  H12S39678   5.905   2.800   3.299 -0.3300  0.5588  0.5513
  288DOPC  C21339679   6.004   2.834   3.487  0.5124  0.2550  0.3255
  288DOPC  H13R39680   5.925   2.900   3.529  0.9432  1.4118 -0.6291
  288DOPC  H13S39681   6.107   2.867   3.514  0.7922  0.2130 -0.6646
  288DOPC  C21439682   5.998   2.691   3.542  0.4122 -0.2309 -0.6097
  288DOPC  H14R39683   6.083   2.632   3.502  0.9418  0.2271 -0.1658
  288DOPC  H14S39684   5.910   2.635   3.502  0.5480 -2.1302  1.5668
  288DOPC  C21539685   5.987   2.687   3.695 -0.2905  0.2536 -0.0220
  288DOPC  H15R39686   5.900   2.748   3.728 -0.3901 -1.5800  3.6264
  288DOPC  H15S39687   6.082   2.723   3.739 -1.4180  1.8781  1.1891
  288DOPC  C21639688   5.963   2.548   3.751 -0.3108  0.1908  0.1488
  288DOPC  H16R39689   5.863   2.509   3.721  0.5871 -0.7622 -1.8070
  288DOPC  H16S39690   5.972   2.549   3.861  1.2129 -4.1049  0.2367
  288DOPC  C21739691   6.074   2.450   3.713 -0.0149 -0.7602  0.2561
  288DOPC  H17R39692   6.176   2.492   3.727 -0.0472 -0.9930  1.2391
  288DOPC  H17S39693   6.077   2.425   3.605  1.4411 -1.1955  0.3817
  288DOPC  C21839694   6.068   2.320   3.797 -0.3179  0.8082  0.0709
  288DOPC  H18R39695   6.089   2.335   3.905 -0.1327  0.6723  0.0538
  288DOPC  H18S39696   6.130   2.233   3.766 -1.4261 -0.7964  2.1258
  288DOPC  H18T39697   5.965   2.279   3.791  0.2413 -0.4836 -1.5143
  288DOPC   C3339698   6.241   3.000   2.558  0.2804 -0.4788  0.0281
  288DOPC   H3X39699   6.137   2.985   2.593  0.4888 -1.4390  0.2655
  288DOPC   H3Y39700   6.269   3.097   2.604 -3.1379  0.3112  0.7280
  288DOPC   C3439701   6.322   2.884   2.614  0.0065  0.3401 -0.3958
  288DOPC   H4X39702   6.407   2.865   2.545  0.8763 -1.1706  1.0219
  288DOPC   H4Y39703   6.267   2.788   2.616  2.3861 -1.0880  0.5928
  288DOPC   C3539704   6.369   2.911   2.758  0.0195  0.2607 -0.5775
  288DOPC   H5X39705   6.279   2.945   2.813  0.5306  0.9638 -0.1699
  288DOPC   H5Y39706   6.450   2.986   2.771 -0.9602  1.3716 -0.7538
  288DOPC   C3639707   6.433   2.790   2.816 -0.0919  0.2640 -0.5888
  288DOPC   H6X39708   6.366   2.701   2.820  0.9939 -0.5885 -0.8044
  288DOPC   H6Y39709   6.518   2.768   2.748 -0.3636 -0.4637 -0.7035
  288DOPC   C3739710   6.482   2.808   2.963  0.0172 -0.0549 -0.2905
  288DOPC   H7X39711   6.580   2.860   2.958  0.9895 -1.6108  1.1421
  288DOPC   H7Y39712   6.411   2.874   3.017 -0.3239  0.0843 -0.9027
  288DOPC   C3839713   6.497   2.679   3.046 -0.7241 -0.3512  0.4039
  288DOPC   H8X39714   6.567   2.701   3.130 -0.9437  0.3849  0.3995
  288DOPC   H8Y39715   6.543   2.601   2.982 -0.2905  0.1170  0.1338
  288DOPC   C3939716   6.371   2.626   3.106 -0.3209  0.2525  1.0487
  288DOPC   H9X39717   6.308   2.574   3.033  1.8898 -0.1129 -0.6947
  288DOPC  C31039718   6.317   2.645   3.229  0.1893  0.4834  0.3192
  288DOPC  H10X39719   6.229   2.582   3.249  0.7301 -1.4831 -2.7878
  288DOPC  C31139720   6.367   2.721   3.345 -0.6783 -0.1976  0.4420
  288DOPC  H11X39721   6.298   2.802   3.378  0.8335  0.4057  2.2685
  288DOPC  H11Y39722   6.456   2.775   3.307 -1.0162  0.9120  1.1744
  288DOPC  C31239723   6.424   2.636   3.459  1.0324  0.1147  0.7554
  288DOPC  H12X39724   6.497   2.562   3.419  1.3989  0.7692  0.2004
  288DOPC  H12Y39725   6.355   2.561   3.503  0.5192 -0.9047 -1.6306
  288DOPC  C31339726   6.481   2.713   3.575 -0.5038  0.3802  0.1936
  288DOPC  H13X39727   6.563   2.654   3.622  0.6697  0.4080 -1.7381
  288DOPC  H13Y39728   6.535   2.801   3.535 -1.4124  1.5787  1.4859
  288DOPC  C31439729   6.378   2.758   3.677 -0.5092  0.0028  0.4794
  288DOPC  H14X39730   6.304   2.827   3.630 -1.0903  0.0689  1.4715
  288DOPC  H14Y39731   6.327   2.664   3.707  0.2315 -1.8435 -3.4250
  288DOPC  C31539732   6.434   2.842   3.795  0.0617  0.2920  0.7901
  288DOPC  H15X39733   6.502   2.920   3.754  0.4247 -1.1200 -1.4517
  288DOPC  H15Y39734   6.500   2.783   3.863 -0.7943  1.0097  2.3090
  288DOPC  C31639735   6.323   2.909   3.880  0.2166  0.2227  0.4417
  288DOPC  H16X39736   6.268   2.980   3.814  0.5067  1.0704  1.0997
  288DOPC  H16Y39737   6.256   2.823   3.900  0.1895  0.3021  0.6925
  288DOPC  C31739738   6.368   2.976   4.005  0.0915 -0.8043 -0.5370
  288DOPC  H17X39739   6.426   2.910   4.072 -0.6933 -1.4169 -0.4435
  288DOPC  H17Y39740   6.439   3.048   3.960  0.3060 -1.0765 -0.6363
  288DOPC  C31839741   6.253   3.036   4.084  0.1351 -0.1061 -0.6902
  288DOPC  H18X39742   6.287   3.089   4.175 -0.7432 -1.2944  0.3565
  288DOPC  H18Y39743   6.187   3.104   4.025 -0.8325  1.3945  1.9488
  288DOPC  H18Z39744   6.184   2.961   4.128  1.2144  0.4551  2.1501
  289DOPC     N39745   0.698   4.094   1.581 -0.8106  0.0987  0.1270
  289DOPC   C1239746   0.663   4.096   1.728 -0.2254  0.7906  0.2296
  289DOPC  H12A39747   0.696   4.001   1.768 -1.4703  0.0668 -0.3934
  289DOPC  H12B39748   0.560   4.107   1.755 -0.1800 -1.9495  1.9427
  289DOPC   C1339749   0.630   4.206   1.506  0.2596  0.2170 -0.0203
  289DOPC  H13A39750   0.646   4.187   1.401 -1.8451 -0.2116 -0.3084
  289DOPC  H13B39751   0.525   4.203   1.532  0.2438 -1.2643 -0.2211
  289DOPC  H13C39752   0.678   4.296   1.542  1.1495 -0.6521  1.0039
  289DOPC   C1439753   0.659   3.959   1.524 -0.1308  0.0854 -0.8562
  289DOPC  H14A39754   0.628   3.954   1.421 -0.2027 -3.8298 -0.7681
  289DOPC  H14B39755   0.726   3.877   1.545 -0.3625  0.2232  0.5235
  289DOPC  H14C39756   0.569   3.935   1.578 -0.7002 -1.4040 -2.3976
  289DOPC   C1539757   0.851   4.110   1.563 -0.3980  0.0432  0.5931
  289DOPC  H15A39758   0.899   4.043   1.633  0.4681  0.1489  0.1227
  289DOPC  H15B39759   0.882   4.211   1.587  2.6231 -0.0660 -2.1488
  289DOPC  H15C39760   0.876   4.079   1.462 -0.9433  2.1493 -0.2450
  289DOPC   C1139761   0.733   4.204   1.830 -0.6019 -0.5677  0.0467
  289DOPC  H11A39762   0.727   4.156   1.931  2.2966 -0.7602  0.2272
  289DOPC  H11B39763   0.841   4.207   1.803  0.1848  1.2123  2.8759
  289DOPC     P39764   0.520   4.355   1.856 -0.0508 -0.3095  0.0532
  289DOPC   O1339765   0.442   4.257   1.779  0.4875 -0.2602 -0.3982
  289DOPC   O1439766   0.490   4.498   1.824 -0.1732  0.0593 -0.3482
  289DOPC   O1239767   0.670   4.337   1.819 -1.0461  0.0030  0.2998
  289DOPC   O1139768   0.507   4.323   2.012 -0.5573 -0.1047  0.0558
  289DOPC    C139769   0.585   4.409   2.096  0.0769 -0.1478  0.1769
  289DOPC    HA39770   0.642   4.484   2.036  0.1370 -0.4427 -0.1350
  289DOPC    HB39771   0.665   4.351   2.148  1.2741  0.9240 -0.3993
  289DOPC    C239772   0.498   4.482   2.198  0.5070  0.1445 -0.3510
  289DOPC    HS39773   0.562   4.537   2.270 -1.3978  1.8318  0.1599
  289DOPC   O2139774   0.406   4.385   2.267 -0.3551 -0.6227  0.5163
  289DOPC   C2139775   0.463   4.303   2.356  0.4297  0.0698  0.2697
  289DOPC   O2239776   0.582   4.307   2.378  0.5308 -0.2066 -0.3176
  289DOPC   C2239777   0.350   4.225   2.434 -0.4854  0.2887 -0.0250
  289DOPC   H2R39778   0.250   4.269   2.416 -0.3472 -0.4215 -2.9485
  289DOPC   H2S39779   0.369   4.244   2.542 -1.4979  1.4264 -0.0210
  289DOPC    C339780   0.413   4.583   2.123 -0.0608  0.2401  0.3725
  289DOPC    HX39781   0.361   4.523   2.046  0.9172 -0.7039  0.4345
  289DOPC    HY39782   0.471   4.662   2.071 -0.9335  1.0068  0.5247
  289DOPC   O3139783   0.330   4.648   2.218 -0.3355 -0.4061 -0.3700
  289DOPC   C3139784   0.211   4.603   2.235  0.0800 -0.0050 -0.9477
  289DOPC   O3239785   0.154   4.516   2.171 -0.2261 -0.0304  0.1306
  289DOPC   C3239786   0.150   4.685   2.350 -0.8445 -0.0747 -0.1765
  289DOPC   H2X39787   0.214   4.675   2.440 -0.2272 -1.6428 -0.7513
  289DOPC   H2Y39788   0.138   4.786   2.303  0.6426 -1.1238 -3.1020
  289DOPC   C2339789   0.338   4.072   2.410  0.0206 -0.3384 -0.1769
  289DOPC   H3R39790   0.440   4.028   2.415  0.1681 -0.0049 -0.2099
  289DOPC   H3S39791   0.297   4.045   2.310  0.7051 -1.3967 -0.1865
  289DOPC   C2439792   0.259   4.010   2.526  0.5523  0.1950 -0.2351
  289DOPC   H4R39793   0.162   4.058   2.550 -0.1754 -0.8637 -0.9752
  289DOPC   H4S39794   0.308   4.026   2.624  0.8608  1.4833 -0.5750
  289DOPC   C2539795   0.227   3.860   2.495 -0.6032 -0.0681 -0.1559
  289DOPC   H5R39796   0.315   3.823   2.438 -0.7214 -1.4223  0.5058
  289DOPC   H5S39797   0.134   3.833   2.441 -2.0382  2.0732  1.1006
  289DOPC   C2639798   0.213   3.776   2.627 -0.1283  0.3885  0.1604
  289DOPC   H6R39799   0.303   3.804   2.686 -0.9566  0.6404  1.3427
  289DOPC   H6S39800   0.222   3.672   2.589  1.8526  0.4862  0.2576
  289DOPC   C2739801   0.081   3.785   2.697 -0.6289  0.2679  0.5363
  289DOPC   H7R39802   0.005   3.754   2.622 -0.7616  0.1387  0.7221
  289DOPC   H7S39803   0.067   3.893   2.718  0.0733  1.0346 -2.4222
  289DOPC   C2839804   0.076   3.715   2.834  0.4744 -0.1732 -0.0190
  289DOPC   H8R39805   0.154   3.765   2.895  0.9905  0.7209 -1.3600
  289DOPC   H8S39806   0.109   3.610   2.820 -2.0128 -1.0329 -0.0141
  289DOPC   C2939807  -0.058   3.705   2.903  0.5452 -0.5193  0.2499
  289DOPC   H9R39808  -0.143   3.662   2.848  0.0970  1.8803 -1.0436
  289DOPC  C21039809  -0.076   3.737   3.031 -0.4044 -0.1099 -0.1571
  289DOPC  H10R39810  -0.174   3.748   3.080  0.1962  1.1999  0.8163
  289DOPC  C21139811   0.024   3.783   3.136  0.0392 -0.0450  0.2567
  289DOPC  H11R39812  -0.024   3.851   3.209 -0.7964 -1.0224  0.6569
  289DOPC  H11S39813   0.106   3.846   3.096 -0.4421 -0.4233 -1.4194
  289DOPC  C21239814   0.100   3.670   3.199 -0.5722 -0.1348 -0.1584
  289DOPC  H12R39815   0.153   3.608   3.123 -3.6269  0.9011 -3.4527
  289DOPC  H12S39816   0.030   3.612   3.261 -0.7598  1.8601  1.6122
  289DOPC  C21339817   0.189   3.743   3.306 -0.1335 -0.7662  0.1602
  289DOPC  H13R39818   0.140   3.838   3.337  2.2418  0.9617 -1.0289
  289DOPC  H13S39819   0.277   3.784   3.252 -0.5200 -2.3027 -1.7416
  289DOPC  C21439820   0.226   3.664   3.426  0.4242 -0.0304 -0.3368
  289DOPC  H14R39821   0.283   3.576   3.391 -1.3088 -0.3901 -2.4326
  289DOPC  H14S39822   0.139   3.614   3.474 -1.7745  2.2158 -1.7157
  289DOPC  C21539823   0.312   3.756   3.506 -0.5121 -0.0805 -0.4592
  289DOPC  H15R39824   0.257   3.843   3.548  0.7035  1.2985 -1.6520
  289DOPC  H15S39825   0.393   3.799   3.444 -0.8264  2.8840  0.9867
  289DOPC  C21639826   0.382   3.691   3.624 -0.0143  0.0123  0.8489
  289DOPC  H16R39827   0.483   3.735   3.641 -0.2159  1.2654 -0.9446
  289DOPC  H16S39828   0.384   3.582   3.604  0.8563  0.2984 -0.8568
  289DOPC  C21739829   0.305   3.710   3.763 -0.5935 -0.5413  0.4952
  289DOPC  H17R39830   0.280   3.817   3.780  0.6857  0.0251 -1.0054
  289DOPC  H17S39831   0.382   3.693   3.841 -0.0039 -0.5972 -0.0874
  289DOPC  C21839832   0.183   3.622   3.773 -0.1371  0.6010  0.0160
  289DOPC  H18R39833   0.221   3.521   3.799 -0.4766  0.4475 -0.0782
  289DOPC  H18S39834   0.117   3.621   3.684 -1.1807  0.3886  0.7781
  289DOPC  H18T39835   0.124   3.665   3.856  1.3886 -1.4433  2.2949
  289DOPC   C3339836   0.011   4.637   2.382  0.6197 -0.1065  0.5296
  289DOPC   H3X39837   0.023   4.532   2.416  0.1038  0.0459  1.2049
  289DOPC   H3Y39838  -0.047   4.636   2.287 -0.4527  2.6002  1.0530
  289DOPC   C3439839  -0.071   4.725   2.479 -0.8383 -0.3114 -0.2695
  289DOPC   H4X39840  -0.090   4.828   2.443  0.5375  0.2172  0.4291
  289DOPC   H4Y39841  -0.019   4.742   2.576 -0.0742 -0.7645 -0.5908
  289DOPC   C3539842  -0.210   4.670   2.510  0.0856  0.1651  0.4964
  289DOPC   H5X39843  -0.213   4.566   2.550  1.9390 -0.3496 -0.5784
  289DOPC   H5Y39844  -0.258   4.670   2.410  0.6638 -1.6733  0.1864
  289DOPC   C3639845  -0.282   4.770   2.600 -0.1816 -0.4415 -0.5186
  289DOPC   H6X39846  -0.245   4.754   2.703 -0.6298  0.6569 -0.1748
  289DOPC   H6Y39847  -0.272   4.873   2.561  2.2207 -0.4765 -0.1366
  289DOPC   C3739848  -0.433   4.748   2.613 -0.4923  0.4176  0.0581
  289DOPC   H7X39849  -0.483   4.739   2.514  0.3711  0.9904 -0.4480
  289DOPC   H7Y39850  -0.446   4.649   2.660 -0.0541 -0.3532 -1.3803
  289DOPC   C3839851  -0.493   4.853   2.708 -0.5425  0.8452 -0.2829
  289DOPC   H8X39852  -0.475   4.957   2.672  2.2062  1.1552  1.7021
  289DOPC   H8Y39853  -0.447   4.835   2.807 -3.0952 -0.6029  0.7341
  289DOPC   C3939854  -0.641   4.833   2.727  0.2618 -0.0251 -0.3796
  289DOPC   H9X39855  -0.679   4.734   2.696  0.1672  0.3790 -1.6072
  289DOPC  C31039856  -0.725   4.925   2.774  0.0428 -0.2521  0.1238
  289DOPC  H10X39857  -0.832   4.902   2.765  0.2597 -0.9338 -0.7896
  289DOPC  C31139858  -0.687   5.070   2.802 -0.3256  0.1844  0.0630
  289DOPC  H11X39859  -0.762   5.137   2.754 -0.4332  1.9743  2.5308
  289DOPC  H11Y39860  -0.587   5.103   2.768 -0.5709  0.4620 -0.3962
  289DOPC  C31239861  -0.713   5.105   2.952 -0.6121  0.3387  0.1534
  289DOPC  H12X39862  -0.682   5.211   2.963  1.6113 -0.1637 -0.6467
  289DOPC  H12Y39863  -0.629   5.055   3.006 -0.7882  1.3277  1.3723
  289DOPC  C31339864  -0.851   5.083   3.018 -0.8034  0.5481 -0.7442
  289DOPC  H13X39865  -0.933   5.132   2.959 -0.5663 -0.2577 -1.7682
  289DOPC  H13Y39866  -0.863   4.973   3.020  2.4489  0.1162  0.4896
  289DOPC  C31439867  -0.850   5.142   3.160  0.1331 -0.2508 -0.3633
  289DOPC  H14X39868  -0.754   5.110   3.205 -0.3693 -0.7248  0.3994
  289DOPC  H14Y39869  -0.839   5.253   3.161  0.2879 -0.2665  1.1775
  289DOPC  C31539870  -0.975   5.116   3.251 -0.5638  0.5842  0.3159
  289DOPC  H15X39871  -0.988   5.005   3.248 -2.3345  0.7723 -1.9333
  289DOPC  H15Y39872  -1.064   5.162   3.203 -1.3260 -0.1000  1.0226
  289DOPC  C31639873  -0.949   5.167   3.388  0.0310 -0.4473  0.1777
  289DOPC  H16X39874  -0.889   5.260   3.383 -0.0265 -0.4219 -0.0531
  289DOPC  H16Y39875  -1.043   5.203   3.436 -0.2745  0.2807 -0.9217
  289DOPC  C31739876  -0.885   5.063   3.486 -0.4785  0.7326  0.7460
  289DOPC  H17X39877  -0.948   4.972   3.488  2.1992 -1.2168  0.6677
  289DOPC  H17Y39878  -0.791   5.038   3.434 -0.5104  2.2723 -0.1228
  289DOPC  C31839879  -0.854   5.114   3.632  0.2989 -0.4181 -0.2056
  289DOPC  H18X39880  -0.785   5.201   3.625 -1.1033  0.8515  1.0253
  289DOPC  H18Y39881  -0.951   5.152   3.671  1.2834  2.3519 -0.2312
  289DOPC  H18Z39882  -0.821   5.031   3.698 -2.2316 -0.8314  0.6660
  290DOPC     N39883   3.326   0.892   2.208 -0.0854  0.1754  0.6647
  290DOPC   C1239884   3.177   0.923   2.221 -0.2284  0.4477  0.5423
  290DOPC  H12A39885   3.122   0.843   2.269  0.2865  0.2260  0.7684
  290DOPC  H12B39886   3.141   0.919   2.119 -1.1111 -2.6355  0.8798
  290DOPC   C1339887   3.382   0.984   2.106  0.2927  0.2949 -0.4083
  290DOPC  H13A39888   3.334   0.959   2.012  1.1851  0.9466 -1.0540
  290DOPC  H13B39889   3.350   1.085   2.123 -3.6154 -0.8534 -0.0007
  290DOPC  H13C39890   3.489   0.968   2.104  0.6643  2.3221  0.8320
  290DOPC   C1439891   3.330   0.752   2.152 -0.0505  0.7629  0.8136
  290DOPC  H14A39892   3.274   0.680   2.209 -0.8805 -0.2256 -1.1397
  290DOPC  H14B39893   3.280   0.745   2.056  0.0746 -0.6800  0.8315
  290DOPC  H14C39894   3.433   0.722   2.139 -0.2991  0.4428 -0.6596
  290DOPC   C1539895   3.404   0.897   2.332 -0.5188 -0.3132 -0.1205
  290DOPC  H15A39896   3.393   0.993   2.379 -0.3480 -0.8201  0.9692
  290DOPC  H15B39897   3.510   0.891   2.311 -0.3224 -0.6584  0.9376
  290DOPC  H15C39898   3.377   0.820   2.403 -1.2799  0.1698  0.1255
  290DOPC   C1139899   3.125   1.063   2.274 -0.7857 -0.2767 -0.3869
  290DOPC  H11A39900   3.014   1.053   2.269 -1.0686  2.2830 -0.5398
  290DOPC  H11B39901   3.159   1.059   2.380  0.6103 -1.5875 -0.8468
  290DOPC     P39902   3.091   1.247   2.096 -0.2347 -0.1847  0.0566
  290DOPC   O1339903   3.063   1.147   1.992  0.0776  0.1294 -0.4771
  290DOPC   O1439904   3.170   1.364   2.050  0.7543 -0.2232  0.0730
  290DOPC   O1239905   3.180   1.178   2.203  0.1658  0.0269  0.4619
  290DOPC   O1139906   2.966   1.297   2.176  0.3504  0.3151 -0.1790
  290DOPC    C139907   2.974   1.402   2.270 -0.2836 -0.4916  0.1651
  290DOPC    HA39908   2.886   1.468   2.254  0.8033  1.0563  0.2841
  290DOPC    HB39909   3.070   1.455   2.253  0.5272 -2.0843 -0.4209
  290DOPC    C239910   2.961   1.364   2.415 -0.8262 -0.6129 -0.0418
  290DOPC    HS39911   2.953   1.456   2.478 -2.8449 -2.2152  2.2258
  290DOPC   O2139912   3.078   1.296   2.453 -0.1882  0.5178  0.3306
  290DOPC   C2139913   3.125   1.305   2.573  0.2939 -0.3413 -0.0708
  290DOPC   O2239914   3.079   1.381   2.658  0.0658 -0.0861 -0.0923
  290DOPC   C2239915   3.249   1.214   2.602 -0.4234 -0.0876  0.7016
  290DOPC   H2R39916   3.309   1.242   2.513 -2.0045  0.3765 -0.2686
  290DOPC   H2S39917   3.208   1.111   2.593 -1.7774  0.5874 -2.0721
  290DOPC    C339918   2.831   1.273   2.440 -0.1358 -0.0875 -0.3396
  290DOPC    HX39919   2.812   1.196   2.362 -3.4133  1.6514 -1.4228
  290DOPC    HY39920   2.738   1.331   2.419 -1.5102 -2.4203 -1.0711
  290DOPC   O3139921   2.818   1.213   2.568  0.2955 -0.0895 -0.0395
  290DOPC   C3139922   2.766   1.293   2.664 -0.2186  0.0806  0.1849
  290DOPC   O3239923   2.711   1.403   2.652 -0.0707  0.1521 -0.2058
  290DOPC   C3239924   2.807   1.242   2.801 -0.4374 -0.1021 -0.0267
  290DOPC   H2X39925   2.916   1.227   2.786 -0.1288 -0.0326  1.9543
  290DOPC   H2Y39926   2.771   1.315   2.876  3.1404  1.5373  0.2814
  290DOPC   C2339927   3.330   1.247   2.729 -0.1806 -0.9998 -0.5056
  290DOPC   H3R39928   3.343   1.357   2.740  1.5423 -1.1961 -0.3480
  290DOPC   H3S39929   3.429   1.208   2.696  0.7131 -2.5448  3.4782
  290DOPC   C2439930   3.288   1.183   2.859  0.0934  0.0556 -0.1663
  290DOPC   H4R39931   3.380   1.181   2.922 -0.0909  1.5027  0.1932
  290DOPC   H4S39932   3.243   1.084   2.839 -2.0527  0.6457  1.3551
  290DOPC   C2539933   3.187   1.269   2.945 -0.0333  0.1897  0.7171
  290DOPC   H5R39934   3.088   1.266   2.895  0.7987  0.7352 -1.0263
  290DOPC   H5S39935   3.221   1.375   2.952 -0.3731  0.2456  1.7645
  290DOPC   C2639936   3.185   1.215   3.088 -0.3997  0.6043 -0.4377
  290DOPC   H6R39937   3.281   1.238   3.138 -2.1569  3.9662  1.7622
  290DOPC   H6S39938   3.182   1.104   3.084  1.1753  0.4792  0.9348
  290DOPC   C2739939   3.068   1.270   3.166 -0.3387  0.1043  0.3572
  290DOPC   H7R39940   2.976   1.266   3.104 -0.0155  1.9609 -0.3152
  290DOPC   H7S39941   3.088   1.379   3.176  2.1811 -0.3035  0.3209
  290DOPC   C2839942   3.053   1.208   3.304 -0.2108  0.2723 -0.0246
  290DOPC   H8R39943   3.061   1.099   3.285  0.7394  0.6597 -2.1700
  290DOPC   H8S39944   2.949   1.216   3.343 -0.4143  0.1216 -0.5188
  290DOPC   C2939945   3.172   1.244   3.395  0.4475  0.0858 -0.4317
  290DOPC   H9R39946   3.259   1.177   3.396  0.7534  0.4776  0.5536
  290DOPC  C21039947   3.172   1.350   3.477  0.6099 -0.1939  0.2163
  290DOPC  H10R39948   3.261   1.361   3.541  1.4034 -1.5705 -0.6032
  290DOPC  C21139949   3.052   1.446   3.486 -0.1434  0.1631  0.5902
  290DOPC  H11R39950   3.048   1.487   3.589  2.0004  3.4028 -0.4587
  290DOPC  H11S39951   2.957   1.398   3.453  0.0852 -1.5623  2.2577
  290DOPC  C21239952   3.078   1.579   3.405  0.3724 -0.4922  0.2862
  290DOPC  H12R39953   3.090   1.564   3.296 -0.0202  0.7502  0.0500
  290DOPC  H12S39954   3.177   1.619   3.435 -0.7729  1.9699  1.0566
  290DOPC  C21339955   2.965   1.681   3.415  0.4083  0.7022 -0.3313
  290DOPC  H13R39956   2.944   1.712   3.520 -0.6346 -0.5160 -0.1469
  290DOPC  H13S39957   2.866   1.634   3.394  1.4813 -1.3613 -1.0480
  290DOPC  C21439958   2.966   1.809   3.329  0.9419 -0.2452 -0.3624
  290DOPC  H14R39959   2.986   1.772   3.227 -1.8296 -2.3833 -0.2666
  290DOPC  H14S39960   3.050   1.870   3.367 -1.3111  2.9260 -0.0541
  290DOPC  C21539961   2.838   1.891   3.345  0.4134  0.3238 -0.1655
  290DOPC  H15R39962   2.832   1.939   3.444 -1.6315 -0.6290  0.2341
  290DOPC  H15S39963   2.754   1.819   3.341 -1.1532  2.0799 -0.0042
  290DOPC  C21639964   2.822   1.994   3.236  0.3755 -0.1798 -0.7045
  290DOPC  H16R39965   2.836   1.943   3.139 -1.5096 -0.7031 -0.7372
  290DOPC  H16S39966   2.901   2.071   3.250  0.8980 -1.0690  1.6778
  290DOPC  C21739967   2.688   2.064   3.242  0.5611 -0.0372 -0.7018
  290DOPC  H17R39968   2.677   2.081   3.352 -2.8270  2.6169 -1.3018
  290DOPC  H17S39969   2.605   1.993   3.219 -0.0557  0.4932 -0.1498
  290DOPC  C21839970   2.680   2.199   3.171  0.3650  0.7509  0.0701
  290DOPC  H18R39971   2.587   2.253   3.194 -0.4885 -0.1830 -1.0363
  290DOPC  H18S39972   2.687   2.168   3.064 -0.2680 -3.7713  1.1063
  290DOPC  H18T39973   2.763   2.265   3.205  1.2395 -0.2433 -0.0569
  290DOPC   C3339974   2.746   1.104   2.842 -0.8337 -0.0665  0.0501
  290DOPC   H3X39975   2.735   1.046   2.748  2.0748  1.9337 -1.6702
  290DOPC   H3Y39976   2.642   1.112   2.881 -1.2962  0.8704 -1.3161
  290DOPC   C3439977   2.834   1.041   2.953 -0.3061 -0.1486 -0.1084
  290DOPC   H4X39978   2.838   1.112   3.039 -0.4322 -0.2974  0.0206
  290DOPC   H4Y39979   2.938   1.025   2.918  0.5245  1.4120  1.4693
  290DOPC   C3539980   2.781   0.905   3.004  0.6298 -0.3603  0.1277
  290DOPC   H5X39981   2.772   0.845   2.911 -1.3787  1.8528 -1.2227
  290DOPC   H5Y39982   2.674   0.918   3.031  0.4093  0.6064 -1.1168
  290DOPC   C3639983   2.856   0.837   3.111  0.2904  0.2299  0.3147
  290DOPC   H6X39984   2.962   0.831   3.079  0.2323 -0.9517  0.2715
  290DOPC   H6Y39985   2.857   0.890   3.209  1.4386 -0.9150  0.9570
  290DOPC   C3739986   2.794   0.698   3.128  1.1975 -0.3523  0.2682
  290DOPC   H7X39987   2.685   0.715   3.140  1.1610  1.7635 -2.1742
  290DOPC   H7Y39988   2.804   0.631   3.040 -0.4427 -1.7774  1.1088
  290DOPC   C3839989   2.844   0.615   3.250  0.8629  0.0315  0.3263
  290DOPC   H8X39990   2.807   0.661   3.344 -0.8873 -0.8559  0.1034
  290DOPC   H8Y39991   2.953   0.635   3.239  0.4091  2.0262 -1.1716
  290DOPC   C3939992   2.795   0.475   3.238  0.0292 -0.1493 -0.2542
  290DOPC   H9X39993   2.693   0.445   3.265 -0.7798  0.1346 -2.7586
  290DOPC  C31039994   2.850   0.392   3.154 -0.3300  0.3812  0.0005
  290DOPC  H10X39995   2.810   0.290   3.155 -1.3457  0.7702 -0.0541
  290DOPC  C31139996   2.962   0.417   3.053 -0.0283 -0.5618 -0.1075
  290DOPC  H11X39997   3.053   0.357   3.076  0.8129  0.1601 -1.4095
  290DOPC  H11Y39998   3.002   0.520   3.037 -0.6013 -0.5727 -1.7596
  290DOPC  C31239999   2.919   0.378   2.903  0.0120  0.3063  0.2110
  290DOPC  H12X40000   2.838   0.446   2.868  0.2494  0.4973  0.0277
  290DOPC  H12Y40001   2.873   0.277   2.908  3.1580 -1.3115 -0.4033
  290DOPC  C31340002   3.027   0.392   2.796  0.6882 -0.1019  0.3926
  290DOPC  H13X40003   3.100   0.310   2.809 -1.8028 -2.7763 -1.1612
  290DOPC  H13Y40004   2.971   0.367   2.703  3.4256 -0.2280 -1.3483
  290DOPC  C31440005   3.091   0.530   2.778  0.2273 -0.3302 -0.0178
  290DOPC  H14X40006   3.156   0.561   2.863  1.2540 -0.0836 -0.8730
  290DOPC  H14Y40007   3.172   0.519   2.703  0.2913 -1.1106  0.1584
  290DOPC  C31540008   3.006   0.658   2.750 -0.0053 -0.1457 -0.3662
  290DOPC  H15X40009   2.932   0.680   2.830 -0.8995  1.2157 -1.5152
  290DOPC  H15Y40010   2.958   0.646   2.651 -1.9195 -0.3574  0.5424
  290DOPC  C31640011   3.091   0.785   2.744  0.3094  0.4642  0.5284
  290DOPC  H16X40012   3.122   0.816   2.846  0.6061 -2.7453  1.5148
  290DOPC  H16Y40013   3.185   0.757   2.694 -0.9760 -2.5171 -0.4017
  290DOPC  C31740014   3.015   0.902   2.672 -0.0098  0.7077  0.1973
  290DOPC  H17X40015   2.922   0.923   2.729 -0.2607  1.2962 -0.4214
  290DOPC  H17Y40016   3.066   1.001   2.677 -0.4801  1.0445 -1.3310
  290DOPC  C31840017   2.983   0.875   2.530  0.3597  0.3754  0.0180
  290DOPC  H18X40018   2.948   0.970   2.485  0.1357  1.0118  1.5047
  290DOPC  H18Y40019   3.075   0.839   2.479  1.3026  3.0373 -0.2790
  290DOPC  H18Z40020   2.908   0.794   2.517 -1.6860  2.1576  0.2223
  291DOPC     N40021   0.524   6.868   2.175 -0.4507  0.1300  0.0399
  291DOPC   C1240022   0.406   6.769   2.148 -0.4822  0.1352  0.4481
  291DOPC  H12A40023   0.400   6.687   2.218 -0.7509  0.6751  1.0663
  291DOPC  H12B40024   0.431   6.707   2.063  4.3484  0.2605  1.4635
  291DOPC   C1340025   0.546   6.945   2.052  0.2902  0.3059  0.3852
  291DOPC  H13A40026   0.573   6.882   1.968 -0.9420  0.0668  0.1535
  291DOPC  H13B40027   0.458   6.997   2.018  0.5139  1.7590  1.8887
  291DOPC  H13C40028   0.624   7.021   2.058  0.5376 -0.0072  1.1846
  291DOPC   C1440029   0.644   6.785   2.203  0.8748  0.1328  0.2952
  291DOPC  H14A40030   0.666   6.710   2.128  2.1164  1.3762 -0.6357
  291DOPC  H14B40031   0.723   6.859   2.201  0.6467  0.3746 -0.6395
  291DOPC  H14C40032   0.638   6.739   2.300  1.6547  0.4585  0.5074
  291DOPC   C1540033   0.489   6.963   2.281  0.1866  0.2249  0.3053
  291DOPC  H15A40034   0.507   6.939   2.385  0.7652  3.9331  1.1969
  291DOPC  H15B40035   0.385   6.987   2.268  0.6492  1.7318 -0.9195
  291DOPC  H15C40036   0.544   7.056   2.277 -0.0559  0.4016  0.9204
  291DOPC   C1140037   0.261   6.823   2.130 -0.1942  0.0719  0.7156
  291DOPC  H11A40038   0.187   6.740   2.124  1.4406 -1.4552  0.9039
  291DOPC  H11B40039   0.239   6.877   2.225  2.4047  0.4101  1.1956
  291DOPC     P40040   0.169   6.882   1.881  0.1578 -0.0998  0.2083
  291DOPC   O1340041   0.249   6.791   1.799 -0.0425  0.2694  0.8554
  291DOPC   O1440042   0.138   7.016   1.826  0.1453 -0.6927  0.1896
  291DOPC   O1240043   0.249   6.913   2.015  0.1119  0.8976 -0.1668
  291DOPC   O1140044   0.034   6.807   1.920 -0.2340  0.3372  0.4309
  291DOPC    C140045  -0.076   6.880   1.976 -0.0576 -0.7108 -0.0866
  291DOPC    HA40046  -0.167   6.845   1.923  1.3754 -2.7971 -1.2927
  291DOPC    HB40047  -0.065   6.990   1.965 -2.2206 -0.3629  0.6410
  291DOPC    C240048  -0.097   6.846   2.137 -0.1963  0.1048  0.3529
  291DOPC    HS40049  -0.028   6.912   2.194  0.6076 -1.3852  1.1494
  291DOPC   O2140050  -0.069   6.710   2.162  0.1184  0.1170  0.4691
  291DOPC   C2140051  -0.050   6.664   2.285 -0.5492 -0.0583 -0.3312
  291DOPC   O2240052  -0.063   6.722   2.390 -0.0481 -0.1853  0.6129
  291DOPC   C2240053   0.007   6.518   2.270  0.1973  0.0469  0.3184
  291DOPC   H2R40054   0.114   6.533   2.241  0.3319 -1.6520 -0.1724
  291DOPC   H2S40055  -0.042   6.464   2.186  0.0368  0.7114 -0.0271
  291DOPC    C340056  -0.247   6.886   2.179  0.0967  0.0184  0.4278
  291DOPC    HX40057  -0.299   6.816   2.110  1.9748 -0.6978 -0.3160
  291DOPC    HY40058  -0.258   6.988   2.137 -0.9814  0.3935  1.5622
  291DOPC   O3140059  -0.291   6.877   2.317  0.3734 -0.4681  0.4910
  291DOPC   C3140060  -0.240   6.971   2.395  0.1942 -0.5203 -0.3685
  291DOPC   O3240061  -0.183   7.073   2.366 -0.3556 -0.4362  0.2820
  291DOPC   C3240062  -0.267   6.925   2.538  0.2096  0.2802 -0.0038
  291DOPC   H2X40063  -0.371   6.949   2.568  0.7996  0.9208  1.6285
  291DOPC   H2Y40064  -0.246   6.817   2.548  1.9434  0.4713 -1.0865
  291DOPC   C2340065  -0.001   6.442   2.410  0.3535 -0.8325 -0.5388
  291DOPC   H3R40066   0.046   6.513   2.482 -1.5482  1.0074 -1.0068
  291DOPC   H3S40067   0.069   6.356   2.414  0.0018 -1.0847  0.4794
  291DOPC   C2440068  -0.143   6.408   2.444  0.3316  0.1892 -0.8340
  291DOPC   H4R40069  -0.183   6.343   2.363 -0.9809  0.1766 -0.2009
  291DOPC   H4S40070  -0.197   6.505   2.446  1.1638  0.6554  0.7913
  291DOPC   C2540071  -0.157   6.342   2.588 -0.6808  0.3897 -0.4032
  291DOPC   H5R40072  -0.088   6.255   2.583  0.3579  1.1230  0.5796
  291DOPC   H5S40073  -0.262   6.310   2.605 -0.3501 -1.2431 -1.2324
  291DOPC   C2640074  -0.116   6.432   2.701  0.1158 -0.2952  0.0694
  291DOPC   H6R40075  -0.166   6.530   2.686  1.6674  0.3800 -1.0979
  291DOPC   H6S40076  -0.008   6.452   2.680  0.0018  0.6327  0.2949
  291DOPC   C2740077  -0.155   6.361   2.835  0.3315  0.8173 -0.1512
  291DOPC   H7R40078  -0.105   6.263   2.850 -0.8934  0.2522  0.4135
  291DOPC   H7S40079  -0.265   6.344   2.844  0.0072  1.1316 -2.9060
  291DOPC   C2840080  -0.130   6.447   2.963 -0.3665  0.8744 -0.7872
  291DOPC   H8R40081  -0.024   6.480   2.962 -0.2607  1.0376  2.8819
  291DOPC   H8S40082  -0.139   6.376   3.048  2.2520  0.2706 -0.9313
  291DOPC   C2940083  -0.215   6.572   2.968  0.3455 -0.2521 -0.1776
  291DOPC   H9R40084  -0.248   6.621   2.876 -0.0413  0.8051  0.5085
  291DOPC  C21040085  -0.271   6.618   3.083  0.9791 -0.1242 -0.2465
  291DOPC  H10R40086  -0.347   6.697   3.078  1.5362  0.5970  1.7661
  291DOPC  C21140087  -0.255   6.580   3.227  0.5220  0.1908 -0.9957
  291DOPC  H11R40088  -0.165   6.521   3.253  0.1101  0.8242  2.2577
  291DOPC  H11S40089  -0.331   6.502   3.249  1.1646 -0.0195  0.5994
  291DOPC  C21240090  -0.278   6.697   3.320  0.3362 -0.0465  0.3087
  291DOPC  H12R40091  -0.279   6.664   3.426  1.4292 -0.8308  0.0875
  291DOPC  H12S40092  -0.377   6.744   3.302  0.7084  0.4853 -0.4113
  291DOPC  C21340093  -0.180   6.816   3.321  0.1485  0.0438  0.1098
  291DOPC  H13R40094  -0.171   6.856   3.218 -1.3772 -1.1762 -0.5241
  291DOPC  H13S40095  -0.083   6.782   3.364  0.0630  1.6307  1.7426
  291DOPC  C21440096  -0.231   6.939   3.402  0.5567 -0.3890 -0.3213
  291DOPC  H14R40097  -0.311   6.982   3.338  1.6804  2.2379 -0.0799
  291DOPC  H14S40098  -0.145   7.009   3.387  1.0197 -0.8005  0.3783
  291DOPC  C21540099  -0.263   6.908   3.550  0.0967 -0.4165  1.1192
  291DOPC  H15R40100  -0.180   6.844   3.586  1.1968  0.6125  0.5133
  291DOPC  H15S40101  -0.357   6.850   3.555  0.2604 -0.8283 -0.3023
  291DOPC  C21640102  -0.243   7.027   3.647  0.2536 -0.1799  0.3574
  291DOPC  H16R40103  -0.318   7.107   3.630 -0.6354 -1.0549  0.0282
  291DOPC  H16S40104  -0.142   7.073   3.642  0.5253 -0.6955  0.9044
  291DOPC  C21740105  -0.257   6.969   3.790  0.3093 -0.0298  0.4693
  291DOPC  H17R40106  -0.216   6.866   3.798  1.6342  0.4923  0.6080
  291DOPC  H17S40107  -0.363   6.965   3.825  0.5295 -0.7371  1.0795
  291DOPC  C21840108  -0.180   7.052   3.896 -0.0305  1.0501  0.8814
  291DOPC  H18R40109  -0.218   7.156   3.905 -1.3065  0.6808  0.1037
  291DOPC  H18S40110  -0.071   7.038   3.878 -0.6829 -1.5477 -1.8991
  291DOPC  H18T40111  -0.195   7.008   3.997  2.2061  0.9970  1.2323
  291DOPC   C3340112  -0.180   6.992   2.645 -0.1181  0.0860  0.6922
  291DOPC   H3X40113  -0.217   7.094   2.670 -1.6890 -0.6803  1.6328
  291DOPC   H3Y40114  -0.073   6.990   2.616 -0.0399  0.0729  0.9748
  291DOPC   C3440115  -0.176   6.897   2.770  0.5706  0.1760 -0.2564
  291DOPC   H4X40116  -0.166   6.789   2.745  3.2589 -0.3366  2.4529
  291DOPC   H4Y40117  -0.269   6.916   2.828 -0.0619 -2.1082 -0.4248
  291DOPC   C3540118  -0.061   6.915   2.871  0.3039  0.8686 -0.2110
  291DOPC   H5X40119  -0.071   6.850   2.960 -3.0293  0.1454 -0.9743
  291DOPC   H5Y40120  -0.081   7.017   2.911 -3.2160 -0.3180  1.4933
  291DOPC   C3640121   0.088   6.907   2.828  0.0212 -0.2275 -0.3573
  291DOPC   H6X40122   0.130   7.002   2.789  0.1763 -0.1928 -0.1073
  291DOPC   H6Y40123   0.139   6.887   2.925 -0.8084  3.6078  1.0722
  291DOPC   C3740124   0.114   6.789   2.738 -0.5085  1.0621  0.5566
  291DOPC   H7X40125   0.107   6.692   2.792 -0.7840  1.1446  0.6680
  291DOPC   H7Y40126   0.035   6.804   2.661  0.6478  0.7471 -0.7375
  291DOPC   C3840127   0.249   6.787   2.659  0.9337 -0.8391 -0.7572
  291DOPC   H8X40128   0.334   6.773   2.730 -0.0396  1.2115  0.9304
  291DOPC   H8Y40129   0.264   6.895   2.638  2.3085 -0.5928  1.1798
  291DOPC   C3940130   0.257   6.711   2.531  0.1805 -0.1056 -0.0999
  291DOPC   H9X40131   0.189   6.754   2.456  1.4679  2.4717  0.1148
  291DOPC  C31040132   0.324   6.596   2.522  0.8600  0.2895  0.0868
  291DOPC  H10X40133   0.307   6.530   2.436  0.4606  0.0354  0.3564
  291DOPC  C31140134   0.409   6.529   2.634 -0.2979 -0.5941  0.9272
  291DOPC  H11X40135   0.351   6.442   2.671  1.8724 -1.9324  1.3773
  291DOPC  H11Y40136   0.415   6.602   2.717  0.4322  0.7574 -0.2619
  291DOPC  C31240137   0.549   6.480   2.591 -0.8031  0.5809 -0.2567
  291DOPC  H12X40138   0.608   6.562   2.545  0.3815  0.1661  0.4986
  291DOPC  H12Y40139   0.541   6.401   2.513 -0.4696  2.3487 -2.1875
  291DOPC  C31340140   0.625   6.425   2.715 -0.1591 -0.7396 -0.2262
  291DOPC  H13X40141   0.641   6.511   2.784 -0.4356 -1.2038  0.4275
  291DOPC  H13Y40142   0.559   6.355   2.770 -0.2176 -1.1216 -0.7747
  291DOPC  C31440143   0.756   6.369   2.660  0.5833 -0.0653  0.1155
  291DOPC  H14X40144   0.726   6.290   2.588 -0.8301  1.2616 -0.8311
  291DOPC  H14Y40145   0.813   6.440   2.596  1.8656 -0.0526  1.2127
  291DOPC  C31540146   0.850   6.316   2.768 -0.2028 -1.1346 -0.4787
  291DOPC  H15X40147   0.934   6.273   2.710  0.7054  0.6132 -0.5152
  291DOPC  H15Y40148   0.802   6.224   2.806  0.4682 -1.3489 -0.1404
  291DOPC  C31640149   0.896   6.424   2.868 -0.1365  0.2489  0.4908
  291DOPC  H16X40150   0.940   6.517   2.827  0.6481 -0.0398  0.6713
  291DOPC  H16Y40151   0.809   6.461   2.926 -2.1997 -1.3982 -1.3592
  291DOPC  C31740152   0.993   6.362   2.966 -0.9328  0.7746  0.3589
  291DOPC  H17X40153   0.955   6.272   3.019  0.8499  0.3055  0.9009
  291DOPC  H17Y40154   1.071   6.322   2.897 -3.6374 -3.0941 -0.8742
  291DOPC  C31840155   1.047   6.458   3.064 -0.5729 -0.5802 -0.2015
  291DOPC  H18X40156   1.102   6.403   3.144  3.3124  1.1047 -1.4500
  291DOPC  H18Y40157   1.124   6.523   3.017  0.2169 -0.4969  1.1326
  291DOPC  H18Z40158   0.969   6.519   3.113  0.7977 -0.8839  2.5654
  292DOPC     N40159   7.957   4.832   1.952 -0.5865 -0.0019 -0.1849
  292DOPC   C1240160   8.015   4.720   2.033 -0.0128  0.4438 -0.2293
  292DOPC  H12A40161   8.097   4.761   2.089  2.6866 -1.0261 -2.8470
  292DOPC  H12B40162   8.059   4.641   1.973  0.8011 -0.8102  1.9177
  292DOPC   C1340163   7.968   4.970   2.027  0.1882  0.3708 -0.0167
  292DOPC  H13A40164   8.068   4.985   2.063  0.6968 -2.2789 -0.1282
  292DOPC  H13B40165   7.947   5.051   1.959 -0.1795  1.2287  1.0722
  292DOPC  H13C40166   7.905   4.978   2.115 -0.7418 -1.3239 -0.4934
  292DOPC   C1440167   7.810   4.815   1.922  0.3275 -0.9583  0.1468
  292DOPC  H14A40168   7.768   4.897   1.865  0.1925 -1.2986 -0.2480
  292DOPC  H14B40169   7.788   4.721   1.873  1.5256  0.2719 -3.0491
  292DOPC  H14C40170   7.761   4.814   2.018 -0.0918  0.5192 -0.0295
  292DOPC   C1540171   8.037   4.851   1.830 -0.8128 -0.0059  1.2812
  292DOPC  H15A40172   8.140   4.833   1.855  0.1064  0.9458 -1.4196
  292DOPC  H15B40173   8.026   4.946   1.780 -1.4728 -1.6774 -2.0355
  292DOPC  H15C40174   8.024   4.776   1.753 -0.4804  1.0318  0.1802
  292DOPC   C1140175   7.908   4.656   2.125 -0.5877 -0.0935 -0.4060
  292DOPC  H11A40176   7.824   4.612   2.067  0.4411 -1.8068 -0.6627
  292DOPC  H11B40177   7.961   4.574   2.177 -1.5747 -0.5824 -0.1497
  292DOPC     P40178   7.722   4.745   2.285 -0.1611 -0.0794  0.6586
  292DOPC   O1340179   7.708   4.609   2.343 -0.3825  0.1104  0.1120
  292DOPC   O1440180   7.637   4.797   2.173  0.2422 -0.1875  0.4570
  292DOPC   O1240181   7.874   4.750   2.232  0.0137 -0.5088  0.4165
  292DOPC   O1140182   7.735   4.857   2.390  0.1516 -0.0167  0.1374
  292DOPC    C140183   7.625   4.901   2.469  0.2148 -0.0761  0.3649
  292DOPC    HA40184   7.559   4.819   2.505  0.0284 -0.5160 -0.9137
  292DOPC    HB40185   7.558   4.969   2.411 -1.3660 -0.9015  1.1614
  292DOPC    C240186   7.679   4.978   2.593  0.0223 -0.0898  0.6686
  292DOPC    HS40187   7.747   5.062   2.565  0.1484 -0.5231 -0.3728
  292DOPC   O2140188   7.750   4.899   2.687  0.4448  0.3482 -0.3323
  292DOPC   C2140189   7.870   4.856   2.652 -0.0951  0.4659  0.3677
  292DOPC   O2240190   7.930   4.903   2.555  0.5491  0.2501 -0.5487
  292DOPC   C2240191   7.923   4.748   2.753  0.1528 -0.5681 -0.0849
  292DOPC   H2R40192   7.832   4.698   2.792  0.1136 -0.2983  0.1682
  292DOPC   H2S40193   7.969   4.801   2.839  1.8119  1.0081 -1.8301
  292DOPC    C340194   7.557   5.046   2.668  0.6460  0.8341  0.4708
  292DOPC    HX40195   7.497   4.958   2.699 -1.1836  2.2773  1.1768
  292DOPC    HY40196   7.499   5.096   2.588 -0.9607 -1.6366 -0.0048
  292DOPC   O3140197   7.593   5.126   2.782  0.1529  0.1514 -0.0150
  292DOPC   C3140198   7.500   5.129   2.877 -0.9046  0.2769  0.2777
  292DOPC   O3240199   7.388   5.074   2.867 -0.7339  0.0595 -0.5278
  292DOPC   C3240200   7.563   5.185   3.000 -0.1291 -0.6121 -0.3259
  292DOPC   H2X40201   7.670   5.157   3.006  0.4438  1.6789  1.8582
  292DOPC   H2Y40202   7.563   5.296   3.005  2.1052 -0.6036  2.4106
  292DOPC   C2340203   8.018   4.642   2.691 -0.1287 -0.3047 -0.1778
  292DOPC   H3R40204   8.097   4.693   2.631 -0.2969  1.5520  1.0988
  292DOPC   H3S40205   7.967   4.561   2.634 -1.0090 -0.7071  1.1453
  292DOPC   C2440206   8.092   4.563   2.800 -0.5937  0.3152  0.4750
  292DOPC   H4R40207   8.161   4.632   2.853  3.0906 -2.5055 -0.2736
  292DOPC   H4S40208   8.158   4.492   2.747 -1.9438  0.2987 -1.2992
  292DOPC   C2540209   8.010   4.479   2.895 -0.0522 -0.5478 -0.2739
  292DOPC   H5R40210   7.941   4.418   2.832 -1.5276  0.0932  0.6610
  292DOPC   H5S40211   7.948   4.544   2.960  2.9705  2.0818  0.1991
  292DOPC   C2640212   8.089   4.386   2.996  0.8710  0.2723  0.7002
  292DOPC   H6R40213   8.140   4.451   3.069 -0.8996  4.4414 -1.4547
  292DOPC   H6S40214   8.166   4.328   2.940 -1.4241  0.1668 -2.6576
  292DOPC   C2740215   8.006   4.282   3.074 -0.2748  0.3422 -0.1431
  292DOPC   H7R40216   8.072   4.229   3.146 -0.4214  0.0258 -0.2396
  292DOPC   H7S40217   7.978   4.196   3.010  4.4688 -2.5193  1.0612
  292DOPC   C2840218   7.900   4.353   3.155  0.0696 -0.1955  0.0417
  292DOPC   H8R40219   7.811   4.373   3.091 -0.5952 -2.7727  0.0474
  292DOPC   H8S40220   7.946   4.451   3.181  0.7472 -0.8583  1.4033
  292DOPC   C2940221   7.856   4.302   3.287 -0.5898 -0.4935  0.2342
  292DOPC   H9R40222   7.773   4.234   3.265 -0.3392 -0.4517 -0.8765
  292DOPC  C21040223   7.896   4.342   3.409 -0.4941 -0.0288 -0.3934
  292DOPC  H10R40224   7.853   4.280   3.489  0.0715  0.1063  0.0167
  292DOPC  C21140225   8.002   4.448   3.440  0.4656  0.4866  0.1146
  292DOPC  H11R40226   7.976   4.542   3.388 -0.4518 -0.9431 -2.1900
  292DOPC  H11S40227   8.098   4.404   3.406  2.2171 -1.7991  6.5125
  292DOPC  C21240228   8.000   4.488   3.583  0.0954 -1.2871 -0.6317
  292DOPC  H12R40229   8.003   4.392   3.639 -1.5095 -0.6493  0.6528
  292DOPC  H12S40230   7.905   4.540   3.609  0.8226 -0.0483 -0.3794
  292DOPC  C21340231   8.110   4.589   3.637 -0.4774 -0.2381 -0.4029
  292DOPC  H13R40232   8.095   4.688   3.588  2.0616 -0.6476 -2.1663
  292DOPC  H13S40233   8.204   4.547   3.596  0.5770 -0.2375  1.8572
  292DOPC  C21440234   8.105   4.602   3.798 -0.1377 -0.6012  0.2148
  292DOPC  H14R40235   8.195   4.662   3.818 -2.0697  1.8966  2.0195
  292DOPC  H14S40236   8.108   4.497   3.834  0.9160 -0.6902 -0.1187
  292DOPC  C21540237   7.985   4.668   3.860 -0.1885  0.0362 -0.1449
  292DOPC  H15R40238   7.987   4.668   3.971  1.9036  1.4773 -0.1155
  292DOPC  H15S40239   7.900   4.606   3.823  0.4794 -0.2866 -1.1802
  292DOPC  C21640240   7.973   4.815   3.826 -0.0483  0.1202 -0.3244
  292DOPC  H16R40241   7.939   4.825   3.721 -0.9933 -0.6607 -0.1016
  292DOPC  H16S40242   8.073   4.861   3.843 -0.4528 -0.0403  3.2294
  292DOPC  C21740243   7.875   4.890   3.921  0.2073 -0.2909  0.1555
  292DOPC  H17R40244   7.917   4.867   4.021  2.4133 -2.2367 -1.1046
  292DOPC  H17S40245   7.777   4.838   3.920  0.7780 -1.4043  0.3354
  292DOPC  C21840246   7.847   5.037   3.878  0.0249 -0.1804  0.2055
  292DOPC  H18R40247   7.763   5.052   3.807 -1.1597 -1.2146  1.3361
  292DOPC  H18S40248   7.938   5.075   3.827 -0.6789  1.1966 -0.0713
  292DOPC  H18T40249   7.849   5.095   3.973  0.6047  0.6642 -0.3052
  292DOPC   C3340250   7.492   5.130   3.128  0.8827  0.2975  0.4014
  292DOPC   H3X40251   7.512   5.020   3.128  1.1547  0.3421  0.8737
  292DOPC   H3Y40252   7.382   5.140   3.115  1.0026  0.7210 -0.2779
  292DOPC   C3440253   7.530   5.196   3.263  0.6217  0.0691  0.6621
  292DOPC   H4X40254   7.482   5.136   3.344  1.4706 -1.2812  0.1982
  292DOPC   H4Y40255   7.471   5.290   3.271  1.0651  0.3355  0.8826
  292DOPC   C3540256   7.683   5.237   3.279  0.1397  0.3007 -0.7664
  292DOPC   H5X40257   7.736   5.271   3.187  1.0014  1.1662  0.0258
  292DOPC   H5Y40258   7.740   5.143   3.298 -0.9907 -0.0749  0.9988
  292DOPC   C3640259   7.707   5.333   3.393  0.4090 -0.4449  0.3766
  292DOPC   H6X40260   7.677   5.430   3.348 -0.1436 -1.6163 -1.8919
  292DOPC   H6Y40261   7.631   5.303   3.468 -0.9338  0.1644 -0.7039
  292DOPC   C3740262   7.851   5.337   3.452  0.3509 -0.5286  0.0434
  292DOPC   H7X40263   7.889   5.241   3.493 -1.2144 -1.0022  0.4408
  292DOPC   H7Y40264   7.910   5.356   3.359 -0.7107 -1.0632 -0.7596
  292DOPC   C3840265   7.869   5.452   3.552  0.2366 -0.3680  0.4564
  292DOPC   H8X40266   7.834   5.544   3.500 -1.3027 -0.7974  0.6769
  292DOPC   H8Y40267   7.977   5.473   3.566 -0.2971  1.7829  1.7712
  292DOPC   C3940268   7.805   5.430   3.681 -0.1069 -0.9353 -0.1442
  292DOPC   H9X40269   7.696   5.415   3.676 -0.5757  2.2106 -1.6114
  292DOPC  C31040270   7.865   5.435   3.806  0.2921 -0.5821 -0.1260
  292DOPC  H10X40271   7.802   5.395   3.887 -1.3989  1.5911 -0.2670
  292DOPC  C31140272   8.013   5.450   3.835 -0.1280 -0.8875  0.4675
  292DOPC  H11X40273   8.076   5.432   3.745  1.5983 -3.7618  2.0830
  292DOPC  H11Y40274   8.046   5.376   3.911 -0.2548  0.5048  1.9416
  292DOPC  C31240275   8.040   5.591   3.884 -0.1123  0.0715  0.0117
  292DOPC  H12X40276   8.150   5.605   3.894 -0.0914  0.1048 -0.2744
  292DOPC  H12Y40277   7.991   5.615   3.981 -0.3837 -0.8798  0.1139
  292DOPC  C31340278   7.994   5.707   3.787 -0.3362  0.5215 -0.5520
  292DOPC  H13X40279   8.008   5.681   3.680  0.6156  0.4435 -0.4122
  292DOPC  H13Y40280   7.883   5.704   3.794 -0.3355 -2.4339 -0.3384
  292DOPC  C31440281   8.050   5.847   3.811 -0.7955  0.3432  0.3229
  292DOPC  H14X40282   8.061   5.867   3.920  1.5448  3.0313 -0.2827
  292DOPC  H14Y40283   8.155   5.847   3.775  0.2212 -1.5535  2.9921
  292DOPC  C31540284   7.975   5.971   3.758 -0.0521 -0.4521 -0.3232
  292DOPC  H15X40285   7.971   5.972   3.647 -0.8230  3.1572 -0.3908
  292DOPC  H15Y40286   8.025   6.065   3.791  0.9309 -0.2753 -2.1683
  292DOPC  C31640287   7.833   5.966   3.813 -0.2437 -0.4606  0.1064
  292DOPC  H16X40288   7.782   5.874   3.779  0.5936 -1.0248  0.3627
  292DOPC  H16Y40289   7.834   5.969   3.924 -1.7421  0.7730  0.1286
  292DOPC  C31740290   7.749   6.082   3.754  0.0854 -0.2298  0.0530
  292DOPC  H17X40291   7.728   6.065   3.646  0.2111 -0.2332  0.0293
  292DOPC  H17Y40292   7.650   6.078   3.804 -0.4428  0.2337 -0.9146
  292DOPC  C31840293   7.804   6.226   3.768  0.4139  0.1508 -0.6904
  292DOPC  H18X40294   7.883   6.246   3.692 -0.7770  0.4259 -1.8956
  292DOPC  H18Y40295   7.722   6.300   3.754 -0.8732 -1.1048 -0.0143
  292DOPC  H18Z40296   7.847   6.239   3.869 -1.8362 -2.4213  0.7514
  293DOPC     N40297   2.277   8.370   1.462  0.3029  0.3286  0.1039
  293DOPC   C1240298   2.187   8.262   1.518  0.4219 -0.2108  0.2468
  293DOPC  H12A40299   2.154   8.294   1.616 -0.4358  2.8451 -0.9123
  293DOPC  H12B40300   2.248   8.174   1.531  3.0306  1.0508 -2.2405
  293DOPC   C1340301   2.290   8.354   1.315  0.0163  0.9972  0.5127
  293DOPC  H13A40302   2.344   8.436   1.271  0.9057  1.1847  1.8662
  293DOPC  H13B40303   2.350   8.264   1.306 -0.9713  0.2395  1.2734
  293DOPC  H13C40304   2.195   8.333   1.269  1.5507  3.3174 -4.4143
  293DOPC   C1440305   2.413   8.376   1.527 -0.0755  0.6388  0.1409
  293DOPC  H14A40306   2.399   8.374   1.635 -0.0299  0.2625  0.1408
  293DOPC  H14B40307   2.472   8.295   1.487 -1.7513  0.7233 -2.7757
  293DOPC  H14C40308   2.458   8.472   1.507 -0.8034  0.6535 -1.5272
  293DOPC   C1540309   2.213   8.508   1.473  0.5305 -0.5058  0.4766
  293DOPC  H15A40310   2.118   8.511   1.421 -1.0025  0.2838  3.1684
  293DOPC  H15B40311   2.280   8.576   1.423  0.2859 -0.5480  0.0843
  293DOPC  H15C40312   2.194   8.543   1.573 -0.5426 -2.4304  0.9964
  293DOPC   C1140313   2.055   8.220   1.446 -0.3225 -0.8115  0.7831
  293DOPC  H11A40314   2.089   8.183   1.347 -3.2065  1.7850 -1.3665
  293DOPC  H11B40315   2.013   8.133   1.499  0.8060 -0.3962  2.4395
  293DOPC     P40316   1.842   8.363   1.504 -0.4784  0.1968 -0.4804
  293DOPC   O1340317   1.742   8.252   1.497 -0.5324  0.6333 -0.0153
  293DOPC   O1440318   1.793   8.499   1.480  0.3153  0.2389 -0.1254
  293DOPC   O1240319   1.966   8.329   1.412 -0.1209  0.0459  0.0443
  293DOPC   O1140320   1.904   8.358   1.644 -0.4790  1.2948  0.1316
  293DOPC    C140321   1.819   8.404   1.752  0.1989 -0.2052 -0.4289
  293DOPC    HA40322   1.713   8.413   1.721  0.5548 -0.4730 -1.8075
  293DOPC    HB40323   1.846   8.506   1.786 -2.1009  1.4171 -3.0415
  293DOPC    C240324   1.819   8.311   1.876 -0.2076 -0.9616 -0.3252
  293DOPC    HS40325   1.712   8.302   1.902 -0.6501 -0.5679 -1.8886
  293DOPC   O2140326   1.894   8.366   1.981 -0.0906 -0.4029 -0.1835
  293DOPC   C2140327   1.857   8.342   2.109  0.2797 -0.0028 -0.0339
  293DOPC   O2240328   1.758   8.283   2.147 -0.0169  0.8025  0.4089
  293DOPC   C2240329   1.958   8.406   2.207 -0.4054  0.5215 -0.2998
  293DOPC   H2R40330   1.985   8.504   2.163 -2.7524  0.8724 -1.1081
  293DOPC   H2S40331   2.048   8.341   2.215  1.1715  2.3212 -2.3999
  293DOPC    C340332   1.868   8.171   1.842 -0.2381  0.0462  0.6829
  293DOPC    HX40333   1.979   8.163   1.847 -0.2408  0.1293  0.8757
  293DOPC    HY40334   1.831   8.156   1.739  2.5767 -2.3446 -0.1051
  293DOPC   O3140335   1.800   8.075   1.929  0.1922 -0.0927  0.0292
  293DOPC   C3140336   1.880   7.981   1.984  0.2143  0.1057  0.5829
  293DOPC   O3240337   2.002   7.977   1.984  0.1416 -0.1473  0.5383
  293DOPC   C3240338   1.789   7.867   2.033  0.2968 -0.1955 -0.0455
  293DOPC   H2X40339   1.707   7.842   1.964 -2.1627  0.4945  2.4277
  293DOPC   H2Y40340   1.863   7.787   2.056  2.1996  0.2376 -3.8821
  293DOPC   C2340341   1.908   8.444   2.354  0.5252  0.1717  0.4504
  293DOPC   H3R40342   1.804   8.483   2.352 -0.2243 -1.7589 -0.5651
  293DOPC   H3S40343   1.972   8.527   2.391 -0.2203  1.2689 -0.6273
  293DOPC   C2440344   1.918   8.328   2.457 -0.5961 -0.1808  0.2681
  293DOPC   H4R40345   2.022   8.296   2.433 -0.7814 -0.1510 -0.6256
  293DOPC   H4S40346   1.845   8.247   2.437  0.6625 -2.2425  3.2875
  293DOPC   C2540347   1.911   8.366   2.601 -0.1136  0.7480 -0.0317
  293DOPC   H5R40348   1.971   8.455   2.629  1.4475 -0.0899 -0.6036
  293DOPC   H5S40349   1.957   8.283   2.658  2.6829  1.8429 -0.4986
  293DOPC   C2640350   1.770   8.395   2.655 -0.4661 -0.3003  1.0823
  293DOPC   H6R40351   1.702   8.307   2.662 -2.3511  1.0257  0.1207
  293DOPC   H6S40352   1.717   8.458   2.581  1.7020 -1.7540 -1.9142
  293DOPC   C2740353   1.769   8.468   2.789 -0.3121  0.2011  0.7614
  293DOPC   H7R40354   1.671   8.516   2.810 -0.2267  0.6413  0.1774
  293DOPC   H7S40355   1.851   8.542   2.779 -0.0319  0.0544  1.8685
  293DOPC   C2840356   1.781   8.370   2.913 -0.0654  0.5264 -0.0458
  293DOPC   H8R40357   1.864   8.300   2.887 -2.1152 -1.3269 -2.0106
  293DOPC   H8S40358   1.687   8.310   2.910 -0.5221  1.1522  1.0450
  293DOPC   C2940359   1.807   8.437   3.047  0.1596  0.7572 -0.1678
  293DOPC   H9R40360   1.877   8.522   3.046  1.1241  0.0433  1.5337
  293DOPC  C21040361   1.749   8.417   3.172  0.0403  0.7910  0.2964
  293DOPC  H10R40362   1.770   8.477   3.262 -0.0639 -1.4560  1.8876
  293DOPC  C21140363   1.648   8.311   3.208 -0.1884 -0.2349  0.2521
  293DOPC  H11R40364   1.695   8.210   3.211  0.7264  0.1905  2.6577
  293DOPC  H11S40365   1.556   8.293   3.149  0.1317 -0.8901 -0.0568
  293DOPC  C21240366   1.591   8.344   3.345 -0.5075  0.2707 -0.8870
  293DOPC  H12R40367   1.519   8.259   3.346  0.0629 -0.2254  1.1429
  293DOPC  H12S40368   1.548   8.447   3.348 -1.3353 -0.0535 -1.2153
  293DOPC  C21340369   1.680   8.328   3.467 -0.3591  0.1719  0.0533
  293DOPC  H13R40370   1.759   8.406   3.456 -0.3173 -0.2160 -3.2820
  293DOPC  H13S40371   1.734   8.233   3.447 -1.2247  0.1074 -2.2909
  293DOPC  C21440372   1.599   8.351   3.592  0.2938  0.0333 -0.3270
  293DOPC  H14R40373   1.528   8.267   3.606  0.9898 -0.7327 -1.2344
  293DOPC  H14S40374   1.548   8.449   3.589 -1.3488 -0.7831 -0.1789
  293DOPC  C21540375   1.689   8.358   3.725  0.3990  0.6848  0.3363
  293DOPC  H15R40376   1.755   8.446   3.709 -0.1116  1.2836  1.3844
  293DOPC  H15S40377   1.749   8.266   3.738 -1.8391 -0.5192  3.5598
  293DOPC  C21640378   1.618   8.381   3.852 -0.3467 -0.2979 -0.8227
  293DOPC  H16R40379   1.518   8.334   3.863 -1.6850  2.5957  0.2890
  293DOPC  H16S40380   1.596   8.488   3.869 -2.2757 -0.7643 -0.0632
  293DOPC  C21740381   1.701   8.325   3.980 -0.3224  0.0762  0.3527
  293DOPC  H17R40382   1.705   8.214   3.966 -2.4108 -0.2538  1.8575
  293DOPC  H17S40383   1.647   8.348   4.074  0.6656 -0.4180  1.0672
  293DOPC  C21840384   1.837   8.398   4.003 -0.2564  0.3458 -0.7308
  293DOPC  H18R40385   1.894   8.400   3.908 -0.0125 -0.2376 -0.6054
  293DOPC  H18S40386   1.906   8.355   4.079 -0.1861  3.0987  0.8782
  293DOPC  H18T40387   1.820   8.504   4.029  1.8699  0.5062  0.2481
  293DOPC   C3340388   1.730   7.907   2.169 -0.1914 -0.0370  0.0405
  293DOPC   H3X40389   1.673   7.814   2.191  3.2108 -2.3142  0.0063
  293DOPC   H3Y40390   1.665   7.997   2.164  0.6996  0.6510  0.4205
  293DOPC   C3440391   1.833   7.930   2.284  0.3908  1.0773 -0.0264
  293DOPC   H4X40392   1.864   8.034   2.305  1.7372  0.5390  0.7413
  293DOPC   H4Y40393   1.913   7.871   2.234 -0.4178  0.8218 -1.0712
  293DOPC   C3540394   1.780   7.856   2.404 -0.2893  0.4550 -0.5685
  293DOPC   H5X40395   1.772   7.750   2.373  3.4792 -0.3299  0.6982
  293DOPC   H5Y40396   1.676   7.889   2.429 -1.2615 -1.5838 -1.6977
  293DOPC   C3640397   1.889   7.873   2.516 -0.2031  0.1717  0.3208
  293DOPC   H6X40398   1.981   7.831   2.469 -0.8435  0.3551 -1.1785
  293DOPC   H6Y40399   1.911   7.978   2.545  3.4296 -0.4994  0.5631
  293DOPC   C3740400   1.862   7.791   2.638 -0.3395  0.1485  0.4481
  293DOPC   H7X40401   1.853   7.685   2.605 -2.7039  0.6115 -0.6189
  293DOPC   H7Y40402   1.956   7.797   2.698  1.2146 -0.5657 -1.7869
  293DOPC   C3840403   1.733   7.825   2.728 -0.2626 -0.6584 -0.0430
  293DOPC   H8X40404   1.711   7.746   2.802 -2.2050  1.0475  1.3305
  293DOPC   H8Y40405   1.647   7.833   2.658  0.3275  0.6206 -0.6537
  293DOPC   C3940406   1.735   7.963   2.799 -0.2380 -0.4779 -0.6001
  293DOPC   H9X40407   1.746   8.051   2.734 -1.9659  0.1909 -0.0564
  293DOPC  C31040408   1.710   7.988   2.934 -0.3066 -1.0869  0.1638
  293DOPC  H10X40409   1.708   8.095   2.960  3.9394 -0.8208  0.1132
  293DOPC  C31140410   1.669   7.885   3.034  0.3971  1.0485 -0.7626
  293DOPC  H11X40411   1.760   7.842   3.082 -0.7327 -1.5707 -0.7549
  293DOPC  H11Y40412   1.607   7.804   2.991 -0.5034  0.4229  1.5630
  293DOPC  C31240413   1.585   7.941   3.144  0.5953  0.0356 -0.7780
  293DOPC  H12X40414   1.485   7.965   3.100  0.8300 -3.1069 -3.3586
  293DOPC  H12Y40415   1.636   8.025   3.195 -1.4324  0.4287  0.7495
  293DOPC  C31340416   1.571   7.832   3.253  0.2917 -0.0181 -0.2619
  293DOPC  H13X40417   1.547   7.743   3.191  0.0942  0.2461 -0.5727
  293DOPC  H13Y40418   1.664   7.827   3.313 -1.2630 -1.3833  2.2494
  293DOPC  C31440419   1.461   7.859   3.360 -0.4304  0.1555 -0.1519
  293DOPC  H14X40420   1.376   7.912   3.312  1.0485  2.2330 -0.6140
  293DOPC  H14Y40421   1.433   7.765   3.412 -0.3737  0.7919  1.0574
  293DOPC  C31540422   1.498   7.960   3.475  0.6411 -0.1882 -0.3971
  293DOPC  H15X40423   1.407   8.015   3.507  1.1742  0.2164  0.4590
  293DOPC  H15Y40424   1.571   8.025   3.422 -0.3309  1.5135  0.2813
  293DOPC  C31640425   1.549   7.897   3.602  0.2094 -0.6184  0.4710
  293DOPC  H16X40426   1.482   7.817   3.640  0.6439 -2.2147 -1.8728
  293DOPC  H16Y40427   1.636   7.834   3.572  1.7460  1.6393 -0.1182
  293DOPC  C31740428   1.585   7.996   3.713  0.4259 -0.0454 -0.4449
  293DOPC  H17X40429   1.680   8.043   3.676  0.7855  0.4301  1.0083
  293DOPC  H17Y40430   1.501   8.068   3.719  0.0606 -0.5934  1.5523
  293DOPC  C31840431   1.621   7.927   3.844 -0.5271  0.1900  0.1638
  293DOPC  H18X40432   1.708   7.859   3.831 -0.0825  0.7777  0.0169
  293DOPC  H18Y40433   1.660   8.007   3.911  0.9708  0.6665 -1.2166
  293DOPC  H18Z40434   1.537   7.874   3.893 -0.9103 -0.0848 -0.7721
  294DOPC     N40435  10.166   9.987   1.734  0.6439  0.4034  0.3189
  294DOPC   C1240436  10.149   9.861   1.819  0.6984 -0.0390  0.4886
  294DOPC  H12A40437  10.144   9.888   1.924  2.7059  1.0182  0.3755
  294DOPC  H12B40438  10.232   9.794   1.800  2.6832  2.0642  1.2698
  294DOPC   C1340439  10.142   9.959   1.590 -0.5085  0.2442  0.6734
  294DOPC  H13A40440  10.040   9.926   1.575 -0.7495  0.3665  1.9430
  294DOPC  H13B40441  10.150  10.050   1.534 -2.3434  1.5651  2.4180
  294DOPC  H13C40442  10.200   9.873   1.559 -0.0137  0.5796  0.6719
  294DOPC   C1440443  10.305  10.035   1.741 -0.0525 -0.1934  0.2888
  294DOPC  H14A40444  10.378   9.961   1.712  0.1458  0.7965 -1.9457
  294DOPC  H14B40445  10.315  10.121   1.676 -2.1556  0.1445  0.3332
  294DOPC  H14C40446  10.338  10.068   1.838  0.1703 -3.3425  1.4098
  294DOPC   C1540447  10.074  10.106   1.772 -0.8620  0.2917  0.3116
  294DOPC  H15A40448   9.975  10.061   1.777  0.2155 -2.2164  0.6811
  294DOPC  H15B40449  10.080  10.180   1.694 -0.6717  0.8229  0.8228
  294DOPC  H15C40450  10.102  10.151   1.866 -2.6704  0.4984  0.7922
  294DOPC   C1140451  10.021   9.774   1.800 -0.0142  0.0451 -0.0820
  294DOPC  H11A40452  10.037   9.727   1.700 -1.0983  1.0060 -0.7337
  294DOPC  H11B40453  10.029   9.681   1.861 -1.1671 -0.9577 -1.3699
  294DOPC     P40454   9.763   9.754   1.860  0.4304  0.5030 -0.2672
  294DOPC   O1340455   9.776   9.621   1.794  0.1133  0.7476 -0.0923
  294DOPC   O1440456   9.636   9.824   1.835 -0.2096  0.3195  0.1745
  294DOPC   O1240457   9.892   9.843   1.832 -0.1703  0.9532 -0.5229
  294DOPC   O1140458   9.761   9.723   2.019 -0.0749 -0.1328  0.5544
  294DOPC    C140459   9.850   9.801   2.101  0.4629 -0.4988  0.8354
  294DOPC    HA40460   9.825   9.905   2.071 -1.7139 -1.3483 -0.5370
  294DOPC    HB40461   9.959   9.790   2.080 -0.1037 -0.8898 -2.5799
  294DOPC    C240462   9.817   9.799   2.252  0.2639 -0.2333 -0.4126
  294DOPC    HS40463   9.874   9.884   2.296  0.1110  1.1738 -2.7342
  294DOPC   O2140464   9.863   9.672   2.298  0.8250 -0.7193 -0.4841
  294DOPC   C2140465   9.930   9.669   2.418 -0.2064 -0.3599  0.1234
  294DOPC   O2240466   9.948   9.762   2.491  0.4575  0.0151  0.3903
  294DOPC   C2240467   9.986   9.534   2.433 -0.1198 -0.4260  0.0469
  294DOPC   H2R40468  10.078   9.524   2.370 -0.3070 -2.3256  0.0236
  294DOPC   H2S40469   9.916   9.468   2.378 -0.0552 -0.0302 -0.5170
  294DOPC    C340470   9.667   9.821   2.282 -0.7910 -0.7037 -0.1683
  294DOPC    HX40471   9.597   9.741   2.249 -1.8351 -1.0715  2.6737
  294DOPC    HY40472   9.641   9.908   2.218 -0.8752  0.9247  1.9778
  294DOPC   O3140473   9.654   9.861   2.418 -0.7453  0.0279 -0.0327
  294DOPC   C3140474   9.611   9.768   2.502 -0.7293  0.0092  0.0823
  294DOPC   O3240475   9.601   9.650   2.478  0.3069 -0.1049 -0.3854
  294DOPC   C3240476   9.571   9.834   2.638  0.2423 -0.0090  0.6508
  294DOPC   H2X40477   9.652   9.899   2.678 -0.2076  0.5823  0.6213
  294DOPC   H2Y40478   9.481   9.894   2.610  1.3677  1.6651  0.4438
  294DOPC   C2340479  10.024   9.491   2.579  0.5105  0.9132  0.4781
  294DOPC   H3R40480  10.107   9.545   2.630 -1.0530  1.6460  2.4045
  294DOPC   H3S40481  10.048   9.382   2.577  4.0847  1.6034  0.8405
  294DOPC   C2440482   9.902   9.505   2.673  1.1610  0.4397 -0.8617
  294DOPC   H4R40483   9.800   9.490   2.632  1.2679 -2.3275 -0.2756
  294DOPC   H4S40484   9.909   9.607   2.719  3.2578  0.2046 -0.5771
  294DOPC   C2540485   9.918   9.409   2.791 -0.2582 -0.0277 -0.6222
  294DOPC   H5R40486  10.008   9.434   2.851 -1.0438 -0.3567  0.7337
  294DOPC   H5S40487   9.931   9.301   2.765 -1.7176 -0.2166 -0.6349
  294DOPC   C2640488   9.802   9.404   2.898 -0.6326 -0.5210  0.0856
  294DOPC   H6R40489   9.810   9.306   2.949  1.8856 -0.1897  0.4325
  294DOPC   H6S40490   9.709   9.410   2.837 -0.6866 -0.9310  0.1247
  294DOPC   C2740491   9.802   9.521   3.004 -0.2966  0.4281 -0.7723
  294DOPC   H7R40492   9.695   9.541   3.026 -0.8311 -2.6520 -0.0347
  294DOPC   H7S40493   9.835   9.609   2.945 -1.0394 -0.0279 -1.9171
  294DOPC   C2840494   9.890   9.491   3.120  0.1656 -0.4195  0.3781
  294DOPC   H8R40495   9.994   9.484   3.082 -0.3149 -1.5573 -0.8178
  294DOPC   H8S40496   9.856   9.394   3.163 -1.6996 -0.3660 -0.8485
  294DOPC   C2940497   9.878   9.603   3.223 -0.0437  0.7839 -0.0267
  294DOPC   H9R40498   9.771   9.624   3.235 -0.2118 -0.6559  1.5267
  294DOPC  C21040499   9.971   9.669   3.289  0.6624 -0.4435  0.5601
  294DOPC  H10R40500   9.943   9.752   3.355  1.7496  0.0126  0.4647
  294DOPC  C21140501  10.117   9.647   3.282 -0.4370  0.3987 -0.0769
  294DOPC  H11R40502  10.154   9.726   3.213  0.5644  0.3664  0.4076
  294DOPC  H11S40503  10.137   9.549   3.234 -2.7208  0.9669 -2.4208
  294DOPC  C21240504  10.183   9.649   3.421  0.3289  0.2712  0.4637
  294DOPC  H12R40505  10.292   9.660   3.400  0.5346 -0.0351  1.3366
  294DOPC  H12S40506  10.160   9.556   3.478 -0.9915  0.4236  0.1990
  294DOPC  C21340507  10.148   9.766   3.520  0.2476  0.1549  0.0344
  294DOPC  H13R40508  10.043   9.774   3.555  0.6672  1.1492  1.1142
  294DOPC  H13S40509  10.179   9.861   3.470  3.3610  0.0312  1.5344
  294DOPC  C21440510  10.218   9.756   3.656 -0.2312 -0.2732  0.5343
  294DOPC  H14R40511  10.326   9.768   3.634 -0.3286 -0.6674 -0.2114
  294DOPC  H14S40512  10.205   9.664   3.717 -0.1385 -1.2947 -0.9062
  294DOPC  C21540513  10.165   9.871   3.743 -0.3203 -0.5997 -0.8183
  294DOPC  H15R40514  10.057   9.857   3.766 -0.5559  3.6753  1.6120
  294DOPC  H15S40515  10.175   9.963   3.681 -0.3869  0.6452  0.9515
  294DOPC  C21640516  10.246   9.885   3.881  0.1545 -0.0246  0.2419
  294DOPC  H16R40517  10.220   9.980   3.932  1.2814 -0.6946  2.1525
  294DOPC  H16S40518  10.355   9.891   3.859  0.1437 -0.1716  0.1435
  294DOPC  C21740519  10.218   9.771   3.987 -0.1977  0.3725 -0.4531
  294DOPC  H17R40520  10.310   9.765   4.049 -0.6566  1.3192  0.3465
  294DOPC  H17S40521  10.216   9.672   3.936 -1.1454 -0.4032  1.0052
  294DOPC  C21840522  10.102   9.811   4.069  0.6429  0.1988  0.1369
  294DOPC  H18R40523  10.007   9.811   4.010  0.9546  0.3101 -0.3692
  294DOPC  H18S40524  10.115   9.904   4.127  1.5081  0.1127  0.0851
  294DOPC  H18T40525  10.093   9.728   4.143  1.6936  0.3386  0.4293
  294DOPC   C3340526   9.544   9.737   2.753  0.5194  0.5249 -0.3013
  294DOPC   H3X40527   9.635   9.676   2.769 -0.5022 -1.1579 -0.7067
  294DOPC   H3Y40528   9.457   9.671   2.735 -0.3396  1.2429  0.9490
  294DOPC   C3440529   9.509   9.815   2.886  0.3512 -0.1972 -0.2732
  294DOPC   H4X40530   9.454   9.911   2.875  3.1106  1.5697  0.2175
  294DOPC   H4Y40531   9.610   9.849   2.917  0.4191  0.0962 -0.8010
  294DOPC   C3540532   9.443   9.730   2.997  0.3038  0.1814  0.0423
  294DOPC   H5X40533   9.509   9.642   3.010  2.4548  1.8133  0.8251
  294DOPC   H5Y40534   9.339   9.699   2.971  0.1182  2.2004 -1.8841
  294DOPC   C3640535   9.432   9.795   3.135  0.5392 -0.2606  0.2292
  294DOPC   H6X40536   9.539   9.814   3.158  0.1248  2.0661  0.5022
  294DOPC   H6Y40537   9.384   9.895   3.124 -0.3574 -0.6759  0.2399
  294DOPC   C3740538   9.354   9.699   3.227  0.0912  0.0169  0.3683
  294DOPC   H7X40539   9.259   9.658   3.185 -1.1553  1.0015  2.0628
  294DOPC   H7Y40540   9.423   9.615   3.248  1.0616  0.9413  1.0014
  294DOPC   C3840541   9.312   9.765   3.361 -0.3119 -0.0896 -0.6641
  294DOPC   H8X40542   9.260   9.860   3.336 -1.0688 -0.3506 -0.1190
  294DOPC   H8Y40543   9.400   9.795   3.422 -1.2277 -0.9459  1.1488
  294DOPC   C3940544   9.218   9.675   3.439  0.4667 -0.0166 -0.6674
  294DOPC   H9X40545   9.115   9.668   3.402  0.5216 -1.0488 -0.6454
  294DOPC  C31040546   9.248   9.617   3.560  0.5651  0.4660  0.4306
  294DOPC  H10X40547   9.173   9.554   3.611  1.6203 -0.0754  1.3661
  294DOPC  C31140548   9.374   9.596   3.638 -0.7728  0.1587 -0.1954
  294DOPC  H11X40549   9.453   9.623   3.564  0.0080 -0.6789  0.3258
  294DOPC  H11Y40550   9.382   9.492   3.674 -2.0482 -0.8292 -2.5021
  294DOPC  C31240551   9.387   9.696   3.754 -0.0883  0.3510  0.0450
  294DOPC  H12X40552   9.335   9.660   3.845  0.8633 -1.4938 -0.0942
  294DOPC  H12Y40553   9.343   9.795   3.727 -0.8094 -0.4833 -2.0894
  294DOPC  C31340554   9.534   9.731   3.793  0.1511 -0.0248  0.5127
  294DOPC  H13X40555   9.579   9.751   3.694  0.2827  0.6019  0.6926
  294DOPC  H13Y40556   9.546   9.826   3.850 -0.8583 -0.1885  1.0194
  294DOPC  C31440557   9.610   9.610   3.859  0.5483  0.1703  0.5129
  294DOPC  H14X40558   9.555   9.598   3.955 -1.9450 -1.0422 -0.9597
  294DOPC  H14Y40559   9.587   9.517   3.804 -2.0863  1.5638 -0.9776
  294DOPC  C31540560   9.763   9.634   3.881 -0.6418  0.4097 -0.6699
  294DOPC  H15X40561   9.779   9.736   3.922  1.2365 -1.1034  2.8017
  294DOPC  H15Y40562   9.802   9.561   3.955  0.5027  2.1836  0.5491
  294DOPC  C31640563   9.855   9.600   3.760 -0.6291  0.1016  0.3807
  294DOPC  H16X40564   9.817   9.648   3.667 -1.9625  1.0660  1.3817
  294DOPC  H16Y40565   9.964   9.615   3.772  0.1564 -3.7439 -0.5166
  294DOPC  C31740566   9.844   9.441   3.725  0.4818  0.0734  0.0451
  294DOPC  H17X40567   9.798   9.396   3.815  0.0056  1.9836  0.8134
  294DOPC  H17Y40568   9.771   9.435   3.641  0.2624 -0.0318  0.2434
  294DOPC  C31840569   9.974   9.363   3.703  0.0726 -0.3659  0.0829
  294DOPC  H18X40570  10.048   9.403   3.775 -1.2531 -1.2710  2.0393
  294DOPC  H18Y40571   9.959   9.254   3.721 -0.7921 -0.7032 -2.3434
  294DOPC  H18Z40572  10.008   9.379   3.599 -0.9422 -0.4697 -0.2776
  295DOPC     N40573   7.244   9.047   1.870  0.3671 -0.0942  0.1676
  295DOPC   C1240574   7.359   9.021   1.961  0.4958 -0.0618 -0.0293
  295DOPC  H12A40575   7.405   9.118   1.968 -0.0380  0.1920 -0.0018
  295DOPC  H12B40576   7.441   8.961   1.923  2.6611 -0.6162  4.6934
  295DOPC   C1340577   7.202   8.921   1.798 -0.1750 -0.5747 -0.0481
  295DOPC  H13A40578   7.270   8.900   1.717 -2.1628  0.7623 -2.1937
  295DOPC  H13B40579   7.186   8.833   1.857 -0.2746 -0.1401  0.5860
  295DOPC  H13C40580   7.106   8.948   1.756 -0.5355 -0.6411  0.7214
  295DOPC   C1440581   7.273   9.138   1.757 -0.2130 -0.0023  0.1161
  295DOPC  H14A40582   7.279   9.241   1.789  1.1706  0.1875 -0.6558
  295DOPC  H14B40583   7.364   9.106   1.708  0.5669  0.9097  0.9274
  295DOPC  H14C40584   7.189   9.117   1.693 -0.7112 -1.2273  1.1400
  295DOPC   C1540585   7.131   9.102   1.952  0.2004  0.2745  0.3841
  295DOPC  H15A40586   7.081   9.036   2.022 -1.8604  2.7917  1.4495
  295DOPC  H15B40587   7.054   9.129   1.881 -0.0667 -2.8267 -0.6534
  295DOPC  H15C40588   7.157   9.188   2.012  1.2132 -0.2458  0.7106
  295DOPC   C1140589   7.345   8.959   2.110  0.0862 -0.5007  0.0664
  295DOPC  H11A40590   7.441   8.975   2.164  2.4354  1.0782 -4.1142
  295DOPC  H11B40591   7.271   9.024   2.160 -1.3516 -0.8008 -1.5752
  295DOPC     P40592   7.380   8.706   2.055 -0.1427  0.0273  0.0229
  295DOPC   O1340593   7.514   8.750   2.009 -0.2198  0.3918  0.3468
  295DOPC   O1440594   7.291   8.636   1.953 -0.5245 -0.2834 -0.1596
  295DOPC   O1240595   7.302   8.828   2.111  0.3120  0.4148 -0.6869
  295DOPC   O1140596   7.410   8.613   2.176  0.3020  0.5688  0.2205
  295DOPC    C140597   7.391   8.637   2.316  0.0241 -0.4208  0.0079
  295DOPC    HA40598   7.305   8.576   2.350  0.1424 -1.1114 -0.9019
  295DOPC    HB40599   7.367   8.741   2.346 -1.4310 -0.9469  0.8007
  295DOPC    C240600   7.518   8.595   2.401  0.1661  0.1792  0.3551
  295DOPC    HS40601   7.540   8.492   2.366  1.0304  0.8885 -1.2955
  295DOPC   O2140602   7.492   8.602   2.540 -0.2582 -0.7301  0.0798
  295DOPC   C2140603   7.556   8.510   2.615 -0.3306  0.6409  0.1459
  295DOPC   O2240604   7.592   8.400   2.574  0.3691 -0.0106  0.2226
  295DOPC   C2240605   7.556   8.551   2.763 -0.5941  0.0959  0.8242
  295DOPC   H2R40606   7.449   8.546   2.789 -0.5029 -0.2067  1.1515
  295DOPC   H2S40607   7.588   8.657   2.772 -1.5923  0.5432 -0.5612
  295DOPC    C340608   7.633   8.690   2.364 -0.2407  0.0224  0.4506
  295DOPC    HX40609   7.601   8.786   2.409 -0.1753 -0.3116  1.2279
  295DOPC    HY40610   7.637   8.714   2.255  1.0748 -0.0378  0.4695
  295DOPC   O3140611   7.761   8.650   2.420  0.1421  0.5062  0.1926
  295DOPC   C3140612   7.835   8.577   2.330  0.0082 -0.6602  0.5215
  295DOPC   O3240613   7.795   8.556   2.218 -0.1337 -0.3384  0.4581
  295DOPC   C3240614   7.968   8.535   2.383 -0.0531 -0.6381  0.2672
  295DOPC   H2X40615   8.011   8.460   2.314  1.1607 -0.9808  1.3709
  295DOPC   H2Y40616   8.041   8.619   2.387 -0.6198 -0.0312 -1.0733
  295DOPC   C2340617   7.656   8.462   2.843 -0.0443  1.2805 -0.3995
  295DOPC   H3R40618   7.762   8.486   2.823  0.4903 -0.5844 -0.0036
  295DOPC   H3S40619   7.641   8.354   2.827 -1.3999  1.4629 -0.5288
  295DOPC   C2440620   7.641   8.484   2.994 -0.1157  0.3395 -0.0470
  295DOPC   H4R40621   7.689   8.403   3.053 -0.7616 -1.2973 -1.6944
  295DOPC   H4S40622   7.537   8.462   3.027  0.4369 -0.5386  1.1927
  295DOPC   C2540623   7.689   8.616   3.057  0.0163 -0.4148  0.2794
  295DOPC   H5R40624   7.642   8.700   3.003  0.6711 -0.9111 -1.1251
  295DOPC   H5S40625   7.799   8.630   3.045  0.1621 -0.4614  1.4316
  295DOPC   C2640626   7.652   8.630   3.201 -0.3673  0.3558 -0.2570
  295DOPC   H6R40627   7.700   8.728   3.220  2.0825 -0.7404 -0.3907
  295DOPC   H6S40628   7.696   8.550   3.265 -0.3174  2.0612  1.9379
  295DOPC   C2740629   7.496   8.630   3.227  0.0775 -0.1328 -0.1225
  295DOPC   H7R40630   7.442   8.535   3.209 -1.4116  0.1071  2.5380
  295DOPC   H7S40631   7.453   8.698   3.150 -0.7867  0.7054  1.0722
  295DOPC   C2840632   7.472   8.700   3.360 -0.2830 -0.0685 -0.5449
  295DOPC   H8R40633   7.523   8.799   3.355  1.7863 -1.0285  0.2773
  295DOPC   H8S40634   7.514   8.637   3.442  0.1206 -0.4427 -1.0313
  295DOPC   C2940635   7.323   8.721   3.369  0.7985  0.4784 -0.7107
  295DOPC   H9R40636   7.281   8.789   3.292 -0.4554  0.9587  0.3670
  295DOPC  C21040637   7.241   8.663   3.464 -0.2122 -0.9076  1.2134
  295DOPC  H10R40638   7.136   8.692   3.452  0.2052  1.4404  2.4878
  295DOPC  C21140639   7.279   8.587   3.591 -0.1947  0.2269 -0.0593
  295DOPC  H11R40640   7.385   8.585   3.621 -0.0527 -0.1249 -0.5732
  295DOPC  H11S40641   7.262   8.482   3.562 -1.7045 -0.4921  3.0108
  295DOPC  C21240642   7.182   8.619   3.713  0.5569  0.6802  0.2398
  295DOPC  H12R40643   7.082   8.572   3.702  0.4826  0.5494  1.3404
  295DOPC  H12S40644   7.173   8.729   3.724  1.3877  0.8829 -0.9817
  295DOPC  C21340645   7.241   8.553   3.839  0.3071  0.2539  0.1209
  295DOPC  H13R40646   7.339   8.597   3.868  0.4965 -0.6012  0.8280
  295DOPC  H13S40647   7.258   8.446   3.812  1.5136  0.9645 -2.1520
  295DOPC  C21440648   7.154   8.556   3.962  0.5452 -0.3033 -0.1665
  295DOPC  H14R40649   7.054   8.510   3.950  0.4161  0.1550 -0.8718
  295DOPC  H14S40650   7.137   8.662   3.992 -0.0865 -0.1930 -0.8815
  295DOPC  C21540651   7.213   8.479   4.083 -0.8059 -0.4441  0.1881
  295DOPC  H15R40652   7.315   8.518   4.101 -0.5355 -0.4381 -1.2377
  295DOPC  H15S40653   7.225   8.372   4.056 -0.7223 -0.0922 -1.2604
  295DOPC  C21640654   7.137   8.488   4.215  0.4436  0.1983  0.2807
  295DOPC  H16R40655   7.207   8.446   4.290 -1.2132  0.6206  2.1390
  295DOPC  H16S40656   7.049   8.421   4.209  1.2329 -1.3142  3.4716
  295DOPC  C21740657   7.079   8.627   4.268 -0.2176 -0.3674 -0.3707
  295DOPC  H17R40658   7.000   8.656   4.195 -1.3920 -2.5785 -0.0579
  295DOPC  H17S40659   7.161   8.702   4.264 -0.0328 -0.5439  0.0821
  295DOPC  C21840660   7.015   8.616   4.407  0.0727  0.2547 -0.1872
  295DOPC  H18R40661   7.074   8.543   4.467 -1.5185  0.5163  1.8393
  295DOPC  H18S40662   6.912   8.576   4.392 -0.2590  0.5422  1.1786
  295DOPC  H18T40663   7.008   8.709   4.468 -0.0059  0.0767  0.0771
  295DOPC   C3340664   7.966   8.470   2.518 -0.2713  0.1188  0.3109
  295DOPC   H3X40665   7.870   8.418   2.536  0.5766 -1.5855  0.1098
  295DOPC   H3Y40666   7.980   8.543   2.601 -0.0589  1.8431 -1.1691
  295DOPC   C3440667   8.082   8.373   2.536 -0.5887 -0.0668 -0.4372
  295DOPC   H4X40668   8.176   8.431   2.538  0.4937 -1.7965  1.4224
  295DOPC   H4Y40669   8.103   8.297   2.457 -2.3728 -2.0077  0.8617
  295DOPC   C3540670   8.071   8.296   2.666  0.8808 -0.6266  0.0311
  295DOPC   H5X40671   8.161   8.232   2.679  1.2419 -0.4466 -1.4833
  295DOPC   H5Y40672   7.977   8.237   2.676  0.0284  0.7673  0.4661
  295DOPC   C3640673   8.088   8.385   2.795  0.1044  0.1913  0.0373
  295DOPC   H6X40674   8.182   8.444   2.781  0.9883 -0.6234  2.1691
  295DOPC   H6Y40675   8.013   8.467   2.799  0.1990  0.3757 -1.4166
  295DOPC   C3740676   8.108   8.304   2.924  0.5978  0.4846 -0.5080
  295DOPC   H7X40677   8.015   8.269   2.973  1.6378 -1.0765  0.4662
  295DOPC   H7Y40678   8.152   8.204   2.902 -0.4082 -0.4780  1.5362
  295DOPC   C3840679   8.193   8.373   3.023 -0.5610 -0.2125 -0.2489
  295DOPC   H8X40680   8.162   8.478   3.041 -2.1630 -0.5349 -0.9470
  295DOPC   H8Y40681   8.290   8.397   2.973 -1.7328  2.0868 -1.6013
  295DOPC   C3940682   8.224   8.302   3.156  0.5179 -0.2296 -0.4808
  295DOPC   H9X40683   8.301   8.224   3.154  1.7399  0.9115  0.6106
  295DOPC  C31040684   8.158   8.324   3.271 -1.0545  0.3428 -0.0776
  295DOPC  H10X40685   8.192   8.276   3.365  1.7178  2.0514 -0.0941
  295DOPC  C31140686   8.052   8.428   3.291 -0.0488  0.5005 -0.5801
  295DOPC  H11X40687   7.958   8.387   3.333  0.7275 -0.7388 -0.0060
  295DOPC  H11Y40688   8.034   8.478   3.193 -2.0897 -2.0737 -1.6142
  295DOPC  C31240689   8.080   8.536   3.396  0.3284 -0.0638  0.1397
  295DOPC  H12X40690   8.093   8.490   3.497 -0.3752 -1.1679 -0.2521
  295DOPC  H12Y40691   7.995   8.606   3.386  1.4634  1.3550  0.0690
  295DOPC  C31340692   8.209   8.613   3.354 -0.3871  0.0371 -0.3666
  295DOPC  H13X40693   8.284   8.547   3.304 -0.1645  0.4605 -0.5953
  295DOPC  H13Y40694   8.177   8.687   3.278  0.0901  0.4951 -0.1297
  295DOPC  C31440695   8.271   8.677   3.479  0.2597  0.0778  0.2040
  295DOPC  H14X40696   8.193   8.692   3.556  1.0689 -0.4583  1.1570
  295DOPC  H14Y40697   8.345   8.605   3.519 -1.3783 -1.3330  0.8011
  295DOPC  C31540698   8.335   8.812   3.454 -0.3109  0.2687  0.3673
  295DOPC  H15X40699   8.363   8.846   3.556 -0.3792 -0.9404  0.8079
  295DOPC  H15Y40700   8.259   8.876   3.404  0.1438  0.7366  0.2621
  295DOPC  C31640701   8.461   8.830   3.366 -0.0569  0.0225 -0.6083
  295DOPC  H16X40702   8.542   8.762   3.402 -1.6078 -1.4759  0.2005
  295DOPC  H16Y40703   8.427   8.813   3.262  2.0282  1.6606 -1.6460
  295DOPC  C31740704   8.512   8.977   3.371  0.1467  0.9623 -0.4355
  295DOPC  H17X40705   8.425   9.037   3.337 -2.1009 -1.3429  0.8446
  295DOPC  H17Y40706   8.533   9.000   3.478  0.8695 -0.6943 -0.1893
  295DOPC  C31840707   8.645   9.003   3.300 -0.6717  0.1620  0.2263
  295DOPC  H18X40708   8.658   9.113   3.299  0.2150  0.0646 -1.0632
  295DOPC  H18Y40709   8.738   8.963   3.343  0.7300  1.3172 -1.5703
  295DOPC  H18Z40710   8.632   8.978   3.192 -0.7866 -1.9295  0.6830
  296DOPC     N40711  10.769   2.070   1.828  0.0350  0.2247 -0.1332
  296DOPC   C1240712  10.748   2.088   1.979 -0.9811  0.9206  0.2156
  296DOPC  H12A40713  10.643   2.100   1.998 -1.1169 -0.2222  0.2639
  296DOPC  H12B40714  10.797   2.176   2.017 -1.5654  0.7190  1.4812
  296DOPC   C1340715  10.919   2.081   1.796 -0.0570  0.5447  0.6137
  296DOPC  H13A40716  10.941   2.074   1.691 -0.6299 -3.6734  0.6126
  296DOPC  H13B40717  10.958   2.170   1.844  2.4160 -0.1549  0.0498
  296DOPC  H13C40718  10.969   2.001   1.848  1.2694  0.5256 -0.6400
  296DOPC   C1440719  10.700   2.188   1.759  0.4953  0.5628 -0.1808
  296DOPC  H14A40720  10.752   2.283   1.769 -1.6282  1.9118 -1.3401
  296DOPC  H14B40721  10.672   2.174   1.656  0.9106  1.2549 -0.3994
  296DOPC  H14C40722  10.603   2.202   1.805  0.9368  0.1085  0.9370
  296DOPC   C1540723  10.710   1.944   1.769 -0.2999  0.5629 -0.2731
  296DOPC  H15A40724  10.735   1.857   1.827 -1.9292 -0.6071 -1.2336
  296DOPC  H15B40725  10.738   1.935   1.665 -0.3174 -0.5636 -0.1928
  296DOPC  H15C40726  10.605   1.955   1.793 -0.6811 -4.1617  1.2281
  296DOPC   C1140727  10.789   1.972   2.072  0.4645 -0.0784  0.2987
  296DOPC  H11A40728  10.884   1.922   2.041  0.4942  0.7902 -1.0885
  296DOPC  H11B40729  10.801   2.016   2.173 -1.0943  1.5631 -0.1878
  296DOPC     P40730  10.544   1.910   2.143 -0.0190 -0.2764 -0.5216
  296DOPC   O1340731  10.455   1.794   2.137  0.3254 -0.0439  0.7428
  296DOPC   O1440732  10.497   2.038   2.096 -0.3745  0.3444  0.2824
  296DOPC   O1240733  10.684   1.879   2.072 -0.2832  0.2507 -0.3757
  296DOPC   O1140734  10.581   1.925   2.296 -0.2241  0.6294  0.1897
  296DOPC    C140735  10.638   1.823   2.372 -0.2986  0.9584 -0.2209
  296DOPC    HA40736  10.748   1.836   2.361 -0.2094  1.5494  1.1354
  296DOPC    HB40737  10.614   1.720   2.338 -0.7652  0.5233  1.3220
  296DOPC    C240738  10.588   1.832   2.527  0.3156 -0.3117  0.2806
  296DOPC    HS40739  10.479   1.853   2.521  0.0812 -0.7644  2.2252
  296DOPC   O2140740  10.662   1.932   2.596  0.1327  0.4500  0.3009
  296DOPC   C2140741  10.599   1.992   2.696 -0.5121 -0.1568 -0.2994
  296DOPC   O2240742  10.491   1.958   2.739 -0.4602 -0.7089 -0.3396
  296DOPC   C2240743  10.676   2.111   2.752 -0.0592  0.3831 -0.2529
  296DOPC   H2R40744  10.695   2.175   2.663  1.3519 -0.3134 -0.4780
  296DOPC   H2S40745  10.772   2.063   2.780  0.2969  1.5458  0.6431
  296DOPC    C340746  10.621   1.691   2.593 -0.4221 -0.3190  0.5661
  296DOPC    HX40747  10.732   1.682   2.598 -0.4183 -0.0212  1.2037
  296DOPC    HY40748  10.576   1.617   2.524 -1.5349  0.5371  0.3500
  296DOPC   O3140749  10.583   1.681   2.730  0.2672 -0.2481  0.6429
  296DOPC   C3140750  10.448   1.635   2.741 -0.1481 -0.8497  0.3226
  296DOPC   O3240751  10.371   1.607   2.650  0.6396 -0.1199 -0.7697
  296DOPC   C3240752  10.424   1.624   2.890  0.3647 -0.3426 -0.4757
  296DOPC   H2X40753  10.518   1.586   2.935 -0.9745 -0.6189  2.3582
  296DOPC   H2Y40754  10.402   1.724   2.934  0.5994 -1.2560  1.8689
  296DOPC   C2340755  10.611   2.175   2.872 -0.0346  0.0812 -0.1421
  296DOPC   H3R40756  10.503   2.192   2.849 -0.2087 -1.3883 -0.5153
  296DOPC   H3S40757  10.651   2.277   2.889  1.6520 -0.8447  1.8685
  296DOPC   C2440758  10.623   2.090   3.004  0.2958 -0.0781 -0.4220
  296DOPC   H4R40759  10.722   2.099   3.053 -1.2297  1.3099  2.7277
  296DOPC   H4S40760  10.604   1.983   2.980 -1.0360  0.1900 -0.6858
  296DOPC   C2540761  10.517   2.143   3.107 -0.1568  0.1426 -0.2694
  296DOPC   H5R40762  10.412   2.148   3.071  0.1291  0.9513 -1.0234
  296DOPC   H5S40763  10.545   2.248   3.131  2.2410 -0.4014 -0.3938
  296DOPC   C2640764  10.532   2.057   3.238  0.1837 -0.4573 -0.0825
  296DOPC   H6R40765  10.634   2.074   3.280  0.2997  0.5869 -0.7371
  296DOPC   H6S40766  10.522   1.950   3.213  1.7844 -0.4775 -0.7528
  296DOPC   C2740767  10.427   2.096   3.340  0.4126  0.4105 -0.1923
  296DOPC   H7R40768  10.326   2.106   3.297  0.0193  1.5037  0.9042
  296DOPC   H7S40769  10.461   2.191   3.388 -0.1359 -0.3184  1.7174
  296DOPC   C2840770  10.414   1.993   3.453 -0.5334  0.1901 -0.5484
  296DOPC   H8R40771  10.378   1.893   3.420  0.4014 -1.0369  1.8919
  296DOPC   H8S40772  10.346   2.035   3.531  0.4660 -0.4739  0.7125
  296DOPC   C2940773  10.557   1.967   3.505  0.0253 -0.5624 -0.0942
  296DOPC   H9R40774  10.613   1.893   3.445 -0.5154 -1.5014  0.5391
  296DOPC  C21040775  10.620   2.023   3.608  0.0800  0.0966 -0.4087
  296DOPC  H10R40776  10.719   1.986   3.641 -0.2796 -1.6252 -1.1442
  296DOPC  C21140777  10.560   2.134   3.699  0.1707 -0.3615  0.2494
  296DOPC  H11R40778  10.451   2.120   3.719  0.2647 -0.9064  0.3885
  296DOPC  H11S40779  10.565   2.230   3.642 -0.2340  0.4295  1.5039
  296DOPC  C21240780  10.628   2.142   3.839  0.3670  0.2156  0.2816
  296DOPC  H12R40781  10.736   2.171   3.838  0.0530  1.4583  0.0580
  296DOPC  H12S40782  10.631   2.037   3.874  2.8635 -0.2239 -1.0112
  296DOPC  C21340783  10.561   2.240   3.941 -0.1831  0.6801 -0.2186
  296DOPC  H13R40784  10.472   2.187   3.982 -0.3651  1.7552  0.8261
  296DOPC  H13S40785  10.537   2.329   3.881 -0.4735  0.3289 -0.6269
  296DOPC  C21440786  10.653   2.269   4.062 -0.5795  0.3265 -0.3322
  296DOPC  H14R40787  10.596   2.334   4.132 -0.0265  0.1603  0.2850
  296DOPC  H14S40788  10.744   2.329   4.039  0.3786 -0.3576  1.4545
  296DOPC  C21540789  10.699   2.147   4.154 -0.6221 -0.6768 -0.5081
  296DOPC  H15R40790  10.771   2.192   4.226  0.5827  0.5484 -2.3762
  296DOPC  H15S40791  10.745   2.065   4.095  0.9386 -0.3580  0.2164
  296DOPC  C21640792  10.580   2.091   4.234  0.0333  0.1144 -0.7783
  296DOPC  H16R40793  10.522   2.036   4.157 -0.9623  0.4865 -0.3195
  296DOPC  H16S40794  10.512   2.166   4.280  0.1643 -1.8002  2.8638
  296DOPC  C21740795  10.620   1.984   4.341  0.5406  0.8133  0.5004
  296DOPC  H17R40796  10.704   2.009   4.410  1.1993  0.3871 -0.1269
  296DOPC  H17S40797  10.646   1.892   4.283  0.5936  0.6034  0.8577
  296DOPC  C21840798  10.504   1.934   4.423  0.8207 -0.1376 -0.0564
  296DOPC  H18R40799  10.450   1.847   4.379  1.3154  0.8493 -2.8068
  296DOPC  H18S40800  10.432   2.018   4.432  0.1874 -0.7200  0.3743
  296DOPC  H18T40801  10.533   1.910   4.528  0.8339  2.4772  0.5960
  296DOPC   C3340802  10.317   1.522   2.919  0.0129  0.4396 -0.2443
  296DOPC   H3X40803  10.336   1.434   2.854 -1.1740  0.2135 -0.3121
  296DOPC   H3Y40804  10.218   1.568   2.900  0.1203  1.8115  2.1342
  296DOPC   C3440805  10.304   1.476   3.061  0.2458 -0.4432 -0.4100
  296DOPC   H4X40806  10.195   1.468   3.081  0.4760  0.1859  1.3236
  296DOPC   H4Y40807  10.335   1.548   3.140 -0.3371 -1.1104  0.4506
  296DOPC   C3540808  10.367   1.337   3.094 -0.2439 -0.0228  0.5610
  296DOPC   H5X40809  10.469   1.350   3.136  0.8320 -2.0245 -1.2003
  296DOPC   H5Y40810  10.374   1.278   3.000 -1.3607 -1.8450  1.5544
  296DOPC   C3640811  10.283   1.266   3.197  0.5685  0.4760 -0.4830
  296DOPC   H6X40812  10.250   1.343   3.269  1.4441  1.6640 -1.3206
  296DOPC   H6Y40813  10.186   1.249   3.145  1.3637 -2.1403 -1.2714
  296DOPC   C3740814  10.347   1.155   3.278  0.0911  0.2123 -1.2314
  296DOPC   H7X40815  10.382   1.076   3.208  2.4156  2.3982 -2.7738
  296DOPC   H7Y40816  10.437   1.198   3.328 -1.2831  0.2200  1.4110
  296DOPC   C3840817  10.256   1.101   3.397 -0.4711 -0.5068  0.0834
  296DOPC   H8X40818  10.200   1.183   3.448 -0.0701 -0.4892  0.5055
  296DOPC   H8Y40819  10.321   1.037   3.460 -1.1198 -1.0012  0.2531
  296DOPC   C3940820  10.154   1.015   3.330  1.1357 -0.0772 -0.5797
  296DOPC   H9X40821  10.107   1.050   3.236 -1.4398  3.0055  1.6029
  296DOPC  C31040822  10.115   0.900   3.381  0.4707  0.4150  0.0833
  296DOPC  H10X40823  10.034   0.852   3.324  0.4836  0.3097  0.1530
  296DOPC  C31140824  10.146   0.836   3.519  0.4113 -1.0349  0.5508
  296DOPC  H11X40825  10.055   0.785   3.558 -0.3412  1.0672  1.7123
  296DOPC  H11Y40826  10.186   0.918   3.583 -0.6536  0.2056 -0.3065
  296DOPC  C31240827  10.256   0.729   3.497  0.0034 -0.4543  0.0370
  296DOPC  H12X40828  10.343   0.767   3.441  0.0014 -3.2485 -2.0860
  296DOPC  H12Y40829  10.214   0.648   3.433  0.5423 -0.8276  0.1482
  296DOPC  C31340830  10.294   0.663   3.631 -0.1571  0.1252 -0.8322
  296DOPC  H13X40831  10.326   0.744   3.699 -0.3886 -0.3855 -0.0926
  296DOPC  H13Y40832  10.194   0.631   3.670 -0.2919  0.6223 -0.7731
  296DOPC  C31440833  10.397   0.545   3.612 -0.0596  0.0300 -0.8514
  296DOPC  H14X40834  10.369   0.480   3.527  0.9490  1.8891 -2.6798
  296DOPC  H14Y40835  10.494   0.592   3.585  0.7488 -0.8658  0.3585
  296DOPC  C31540836  10.425   0.471   3.739  0.5170  0.6481  0.9616
  296DOPC  H15X40837  10.423   0.533   3.831  0.8951 -0.8238  1.9959
  296DOPC  H15Y40838  10.525   0.423   3.741 -0.1570 -0.7908  0.8136
  296DOPC  C31640839  10.329   0.359   3.759  0.5208  0.1357 -0.4499
  296DOPC  H16X40840  10.228   0.402   3.748  0.2674  0.4293  2.2883
  296DOPC  H16Y40841  10.345   0.268   3.697 -1.8527 -0.1566 -0.7291
  296DOPC  C31740842  10.334   0.310   3.904  0.2261 -0.4997 -0.2446
  296DOPC  H17X40843  10.435   0.271   3.927 -0.0475 -0.8348  0.4504
  296DOPC  H17Y40844  10.316   0.397   3.970  0.3523 -1.3714  0.9800
  296DOPC  C31840845  10.233   0.196   3.935 -0.2101 -0.2392  0.0210
  296DOPC  H18X40846  10.129   0.231   3.921 -0.2444 -0.4670 -0.2986
  296DOPC  H18Y40847  10.242   0.104   3.873 -0.5554  0.7742 -1.5947
  296DOPC  H18Z40848  10.264   0.172   4.039  2.5394  4.0160  0.4005
  297DOPC     N40849   3.743   4.578   1.715 -0.0628  0.3297 -0.1033
  297DOPC   C1240850   3.713   4.517   1.853 -0.0890  0.1990  0.3114
  297DOPC  H12A40851   3.779   4.565   1.924  3.8468 -2.2041 -1.3634
  297DOPC  H12B40852   3.744   4.413   1.850  0.1496  0.2981 -0.8388
  297DOPC   C1340853   3.660   4.527   1.609 -0.3683  0.5111 -0.3280
  297DOPC  H13A40854   3.657   4.582   1.516 -1.0921  0.4871 -0.3228
  297DOPC  H13B40855   3.686   4.424   1.589 -0.9287  0.1285  0.8101
  297DOPC  H13C40856   3.561   4.536   1.650 -0.5286  1.4694 -0.9144
  297DOPC   C1440857   3.893   4.545   1.690  0.3374 -0.5361 -0.1213
  297DOPC  H14A40858   3.923   4.443   1.672  1.1816 -0.2332 -0.4748
  297DOPC  H14B40859   3.940   4.603   1.612 -2.1198  2.3244  0.3808
  297DOPC  H14C40860   3.943   4.568   1.783 -0.4105 -0.7633  0.3419
  297DOPC   C1540861   3.734   4.734   1.732 -0.0442  0.1317  0.4053
  297DOPC  H15A40862   3.761   4.764   1.832 -0.4577 -3.4105  1.7520
  297DOPC  H15B40863   3.632   4.768   1.719  0.6135  1.7135 -0.9323
  297DOPC  H15C40864   3.799   4.774   1.656 -1.6503  0.2906 -0.9467
  297DOPC   C1140865   3.571   4.515   1.908 -0.2786  0.0153  1.0517
  297DOPC  H11A40866   3.569   4.502   2.018 -0.9262  0.8743  1.1536
  297DOPC  H11B40867   3.521   4.612   1.887  2.1045  0.6103 -2.8702
  297DOPC     P40868   3.512   4.261   1.874 -0.1074  0.0238 -0.2463
  297DOPC   O1340869   3.647   4.211   1.833 -0.6432 -0.8814 -0.6139
  297DOPC   O1440870   3.397   4.187   1.823  0.0689  0.2584  0.4017
  297DOPC   O1240871   3.502   4.415   1.834  0.1302  0.0536 -0.1173
  297DOPC   O1140872   3.501   4.273   2.034 -0.6843  0.6773 -0.1097
  297DOPC    C140873   3.371   4.284   2.090 -0.1593 -0.2454  0.1918
  297DOPC    HA40874   3.301   4.212   2.041  0.2835 -0.2319 -0.4762
  297DOPC    HB40875   3.337   4.389   2.082 -0.8526 -0.3930  1.0219
  297DOPC    C240876   3.384   4.249   2.234 -0.2151 -0.0745  0.3584
  297DOPC    HS40877   3.458   4.167   2.251 -0.3141  0.1384  1.9208
  297DOPC   O2140878   3.258   4.213   2.291  0.4672  0.3199 -0.0337
  297DOPC   C2140879   3.233   4.084   2.323  0.2219  0.0541 -0.3346
  297DOPC   O2240880   3.307   3.992   2.309 -0.3133  0.1148 -0.3173
  297DOPC   C2240881   3.087   4.066   2.373  0.3948  0.3383 -0.2976
  297DOPC   H2R40882   3.023   4.109   2.293 -1.1539  2.2982  1.8475
  297DOPC   H2S40883   3.070   4.131   2.461  1.4512 -0.1292  0.2703
  297DOPC    C340884   3.442   4.365   2.323  0.2757  0.3554  0.5913
  297DOPC    HX40885   3.372   4.449   2.307  0.0235 -0.2253 -1.6399
  297DOPC    HY40886   3.538   4.400   2.279 -0.5220  2.0855  0.1366
  297DOPC   O3140887   3.448   4.330   2.459  0.3145  0.4657 -0.7143
  297DOPC   C3140888   3.547   4.246   2.497 -0.0085  0.2348  0.1988
  297DOPC   O3240889   3.625   4.203   2.416 -0.5253  0.6406 -0.3732
  297DOPC   C3240890   3.529   4.196   2.643 -0.6202 -0.1074  0.8309
  297DOPC   H2X40891   3.523   4.285   2.709  2.1279  0.0913  0.9216
  297DOPC   H2Y40892   3.438   4.133   2.651  0.8393 -2.6665 -1.2219
  297DOPC   C2340893   3.045   3.930   2.431  1.0980  0.5022 -0.2912
  297DOPC   H3R40894   3.073   3.853   2.356 -0.4327  0.2935 -0.6949
  297DOPC   H3S40895   2.934   3.931   2.441  0.9821 -1.7423 -0.7855
  297DOPC   C2440896   3.110   3.896   2.567 -0.8366  0.2775 -0.3621
  297DOPC   H4R40897   3.080   3.975   2.639  2.0779 -0.0039  1.3013
  297DOPC   H4S40898   3.221   3.904   2.566 -0.7116 -0.1988  2.5450
  297DOPC   C2540899   3.062   3.761   2.627  0.4703 -0.2138 -0.1735
  297DOPC   H5R40900   3.066   3.687   2.544 -0.9356 -0.2367 -0.2355
  297DOPC   H5S40901   2.961   3.773   2.670  0.5299  1.2804 -0.3893
  297DOPC   C2640902   3.152   3.724   2.750  0.4906  0.4681 -0.5269
  297DOPC   H6R40903   3.155   3.824   2.798 -1.6939  1.1985 -1.8215
  297DOPC   H6S40904   3.251   3.687   2.714 -0.3068 -1.1125 -1.1814
  297DOPC   C2740905   3.090   3.625   2.856  0.2153  0.3369 -0.1941
  297DOPC   H7R40906   3.083   3.527   2.803  3.0025 -0.3306  0.4700
  297DOPC   H7S40907   2.989   3.660   2.886 -0.3626 -0.1902 -1.4518
  297DOPC   C2840908   3.179   3.600   2.971 -0.5498  0.2844  0.0736
  297DOPC   H8R40909   3.135   3.542   3.055  1.2778 -2.2369 -0.6021
  297DOPC   H8S40910   3.216   3.692   3.021  0.9835 -1.4709  2.3931
  297DOPC   C2940911   3.298   3.514   2.927  0.5580 -0.5939  0.2094
  297DOPC   H9R40912   3.385   3.579   2.908 -1.8541  2.3345 -1.7250
  297DOPC  C21040913   3.300   3.380   2.921 -0.8716 -0.2293 -0.2423
  297DOPC  H10R40914   3.388   3.333   2.874 -1.6766 -0.6149 -1.4146
  297DOPC  C21140915   3.186   3.291   2.939  0.1019  0.1626 -0.4195
  297DOPC  H11R40916   3.186   3.214   2.859  4.7900 -2.9392  2.0422
  297DOPC  H11S40917   3.092   3.348   2.938 -0.5217 -0.6969  1.8198
  297DOPC  C21240918   3.187   3.210   3.066  0.0851  0.1249  0.4061
  297DOPC  H12R40919   3.110   3.130   3.061  1.2850 -1.0068 -0.5590
  297DOPC  H12S40920   3.170   3.284   3.147 -0.4315 -0.4329  0.8152
  297DOPC  C21340921   3.319   3.124   3.082  0.3179  0.9056 -0.3304
  297DOPC  H13R40922   3.410   3.183   3.104  1.1474 -0.2549 -0.5135
  297DOPC  H13S40923   3.346   3.083   2.982  2.1610  2.2627 -0.4429
  297DOPC  C21440924   3.298   3.018   3.190  0.4430 -0.3614 -0.3575
  297DOPC  H14R40925   3.222   2.954   3.141  0.4508 -2.1478  1.8457
  297DOPC  H14S40926   3.248   3.078   3.269  0.7285 -0.2340 -0.2725
  297DOPC  C21540927   3.420   2.943   3.232 -0.0207 -0.0648 -0.0594
  297DOPC  H15R40928   3.408   2.931   3.342  1.8784  1.0699  0.3128
  297DOPC  H15S40929   3.501   3.016   3.211 -1.2121  1.6096  0.8679
  297DOPC  C21640930   3.447   2.820   3.146  0.8604  0.1341  0.0374
  297DOPC  H16R40931   3.443   2.853   3.040  3.8054 -0.1882 -0.2464
  297DOPC  H16S40932   3.374   2.738   3.165 -0.9959  1.5928 -0.4173
  297DOPC  C21740933   3.591   2.755   3.161  0.2512  0.1030 -0.6414
  297DOPC  H17R40934   3.661   2.835   3.129  0.2931  0.2204 -0.2596
  297DOPC  H17S40935   3.607   2.673   3.088 -0.4710 -0.6256 -0.0066
  297DOPC  C21840936   3.630   2.721   3.300 -0.1319 -0.0191 -0.3875
  297DOPC  H18R40937   3.569   2.632   3.329  3.2917 -1.6871  2.4515
  297DOPC  H18S40938   3.615   2.801   3.376 -2.2403  0.5686 -1.3415
  297DOPC  H18T40939   3.738   2.698   3.309 -0.6304 -2.4993  0.0971
  297DOPC   C3340940   3.641   4.104   2.693 -0.1543  0.0482  0.2902
  297DOPC   H3X40941   3.729   4.172   2.695  1.7075 -2.2462  2.5965
  297DOPC   H3Y40942   3.663   4.019   2.625 -3.9723 -0.2566 -0.8065
  297DOPC   C3440943   3.616   4.052   2.839 -0.0991  0.9395  0.3717
  297DOPC   H4X40944   3.525   3.990   2.828  0.5275  0.3859 -2.3153
  297DOPC   H4Y40945   3.601   4.140   2.905 -1.6284  0.7164  0.3641
  297DOPC   C3540946   3.729   3.955   2.878 -0.1225 -0.5265 -0.1396
  297DOPC   H5X40947   3.809   4.026   2.909  0.1684 -0.5907 -0.7281
  297DOPC   H5Y40948   3.757   3.901   2.785  2.1821 -0.6667  0.5607
  297DOPC   C3640949   3.686   3.860   2.994 -0.2747  0.1180 -0.2787
  297DOPC   H6X40950   3.616   3.787   2.949  0.4130 -1.3271  0.8647
  297DOPC   H6Y40951   3.779   3.802   3.016 -0.6997  0.1232  1.7347
  297DOPC   C3740952   3.635   3.933   3.117 -0.4133 -0.2168  0.4354
  297DOPC   H7X40953   3.713   4.007   3.145 -0.9829  0.8260 -0.6126
  297DOPC   H7Y40954   3.538   3.977   3.084 -0.1126 -0.2286 -0.4955
  297DOPC   C3840955   3.594   3.847   3.240  0.1666  0.2165 -0.3487
  297DOPC   H8X40956   3.527   3.765   3.207  0.2534 -0.0910  0.2304
  297DOPC   H8Y40957   3.531   3.914   3.302  2.2642  2.5243 -0.5592
  297DOPC   C3940958   3.721   3.792   3.300 -0.8090 -0.0783  0.0965
  297DOPC   H9X40959   3.791   3.745   3.230 -0.8362  2.0529 -1.4366
  297DOPC  C31040960   3.749   3.787   3.431  0.0300  0.0325  0.1265
  297DOPC  H10X40961   3.852   3.752   3.446  0.3551  0.4258 -1.0507
  297DOPC  C31140962   3.671   3.849   3.541  0.0656 -0.0700  0.0833
  297DOPC  H11X40963   3.596   3.777   3.579 -1.3983 -0.2240 -2.7743
  297DOPC  H11Y40964   3.609   3.933   3.503  0.2678  0.0126 -0.0689
  297DOPC  C31240965   3.760   3.884   3.668 -0.4029 -0.2216 -0.3353
  297DOPC  H12X40966   3.847   3.951   3.650  0.5118 -0.9089  1.3368
  297DOPC  H12Y40967   3.809   3.790   3.699 -0.2387 -0.3833 -1.0708
  297DOPC  C31340968   3.681   3.926   3.791 -0.0811 -0.0321 -0.7995
  297DOPC  H13X40969   3.585   3.871   3.804  0.3533 -0.7878 -0.6800
  297DOPC  H13Y40970   3.739   3.912   3.885 -0.2126 -1.4308 -0.8938
  297DOPC  C31440971   3.649   4.083   3.793 -0.2150  1.1123 -0.3876
  297DOPC  H14X40972   3.613   4.101   3.897  0.4157 -0.8736  0.2197
  297DOPC  H14Y40973   3.746   4.138   3.789 -0.2920  1.1719 -1.7364
  297DOPC  C31540974   3.556   4.136   3.690  0.0314 -0.3531 -0.1634
  297DOPC  H15X40975   3.456   4.088   3.704  1.9867 -4.2411  2.2548
  297DOPC  H15Y40976   3.591   4.109   3.588 -1.9263 -0.6324 -0.8056
  297DOPC  C31640977   3.548   4.291   3.698  1.0023 -1.3924  0.1355
  297DOPC  H16X40978   3.520   4.319   3.801 -2.0119 -1.4719 -0.5875
  297DOPC  H16Y40979   3.647   4.338   3.679 -0.2896  1.3614 -0.1782
  297DOPC  C31740980   3.430   4.352   3.621 -0.3854  0.2250  0.3040
  297DOPC  H17X40981   3.333   4.326   3.667 -0.1031  0.1508  0.8590
  297DOPC  H17Y40982   3.443   4.461   3.637  3.4679 -0.1994  1.0056
  297DOPC  C31840983   3.440   4.328   3.468 -0.1803  0.5999  0.3623
  297DOPC  H18X40984   3.544   4.354   3.437  1.2717 -2.0058  2.5714
  297DOPC  H18Y40985   3.427   4.226   3.426  0.4981  0.3458  0.7386
  297DOPC  H18Z40986   3.370   4.400   3.421  1.6208  2.0638 -0.1918
  298DOPC     N40987   2.791   6.934   1.640  0.3256  0.1251 -1.2670
  298DOPC   C1240988   2.652   6.914   1.702 -0.0725  0.3767 -0.2777
  298DOPC  H12A40989   2.613   6.816   1.677 -1.1349  0.6486  0.2899
  298DOPC  H12B40990   2.591   6.996   1.668 -0.9573  0.0429  0.4439
  298DOPC   C1340991   2.840   7.068   1.676 -0.0768 -0.4764 -0.0181
  298DOPC  H13A40992   2.779   7.155   1.655  0.1287 -0.5759 -1.0937
  298DOPC  H13B40993   2.871   7.069   1.779  1.6794  0.6361 -0.5228
  298DOPC  H13C40994   2.930   7.092   1.621 -0.2650 -0.6724 -0.4187
  298DOPC   C1440995   2.793   6.917   1.490 -0.4834  0.1263 -0.0805
  298DOPC  H14A40996   2.895   6.909   1.455 -0.1362  2.4771  0.2294
  298DOPC  H14B40997   2.743   6.825   1.462  0.3927 -0.3043 -0.2858
  298DOPC  H14C40998   2.744   6.995   1.435 -1.6663 -0.8784 -0.4912
  298DOPC   C1540999   2.895   6.843   1.690 -1.0582  0.1651  0.0294
  298DOPC  H15A41000   2.882   6.743   1.650  0.3289 -0.1219  0.2323
  298DOPC  H15B41001   2.901   6.829   1.797  0.7472  1.2252  0.1061
  298DOPC  H15C41002   2.989   6.884   1.655 -1.0933  1.4682  1.3535
  298DOPC   C1141003   2.637   6.921   1.858  0.0785  0.5015  0.2555
  298DOPC  H11A41004   2.659   7.025   1.891 -1.6293  1.5063 -1.5211
  298DOPC  H11B41005   2.530   6.910   1.887 -0.7329  0.3910 -2.4730
  298DOPC     P41006   2.660   6.678   1.938 -0.0350 -0.3158 -0.1252
  298DOPC   O1341007   2.749   6.590   2.017 -0.3478 -0.3998  0.4063
  298DOPC   O1441008   2.613   6.631   1.809 -0.3116 -0.2188  0.2806
  298DOPC   O1241009   2.710   6.826   1.927  0.0003 -0.1400  0.0484
  298DOPC   O1141010   2.534   6.698   2.032 -0.3183  0.0921 -0.3867
  298DOPC    C141011   2.537   6.749   2.168 -1.0177 -0.0090  0.2565
  298DOPC    HA41012   2.483   6.845   2.173 -1.4490 -0.2619  0.4767
  298DOPC    HB41013   2.642   6.775   2.194 -1.1844 -0.0636  0.9936
  298DOPC    C241014   2.502   6.644   2.275 -0.2773 -0.2762 -0.7902
  298DOPC    HS41015   2.513   6.702   2.370  0.9476  0.3513 -1.2971
  298DOPC   O2141016   2.584   6.530   2.269 -0.5553  0.0301 -0.1885
  298DOPC   C2141017   2.704   6.548   2.312 -1.0716  0.7036 -0.4149
  298DOPC   O2241018   2.739   6.644   2.378  0.3572 -0.3592 -0.0523
  298DOPC   C2241019   2.788   6.422   2.285 -0.0658 -1.1506  0.4544
  298DOPC   H2R41020   2.822   6.429   2.180  0.8467  2.2048  0.8769
  298DOPC   H2S41021   2.723   6.332   2.297 -0.6314 -0.7236  0.6402
  298DOPC    C341022   2.349   6.610   2.267  0.1440 -0.3033 -0.1232
  298DOPC    HX41023   2.320   6.541   2.349  0.8337 -0.9240 -0.3809
  298DOPC    HY41024   2.336   6.557   2.170 -2.4078 -1.0178  0.5366
  298DOPC   O3141025   2.266   6.729   2.274 -0.4899  0.7126 -0.1766
  298DOPC   C3141026   2.135   6.698   2.250 -0.1490 -0.5299 -0.4794
  298DOPC   O3241027   2.096   6.589   2.209 -0.2507  0.2603  0.4597
  298DOPC   C3241028   2.043   6.821   2.279  0.1259  0.2614 -0.0980
  298DOPC   H2X41029   2.085   6.874   2.368  2.7442 -1.1072 -0.4177
  298DOPC   H2Y41030   2.039   6.875   2.182  1.6859 -1.8015 -1.3992
  298DOPC   C2341031   2.916   6.431   2.369 -0.2451  0.2898 -0.3437
  298DOPC   H3R41032   2.956   6.533   2.382  1.4894 -0.4111  0.1067
  298DOPC   H3S41033   2.997   6.375   2.316 -0.3682 -0.6980  0.4772
  298DOPC   C2441034   2.889   6.351   2.495 -0.3240 -0.2519  0.5895
  298DOPC   H4R41035   2.877   6.241   2.481  3.3173 -0.6993 -0.0047
  298DOPC   H4S41036   2.801   6.398   2.543  0.1517  1.0397  0.2490
  298DOPC   C2541037   2.996   6.373   2.603  0.5760  0.2042  0.1446
  298DOPC   H5R41038   3.018   6.478   2.634  0.5951  0.0627  0.6183
  298DOPC   H5S41039   3.088   6.319   2.572  0.4801  0.9126 -1.4763
  298DOPC   C2641040   2.956   6.295   2.735  0.1161 -0.5110  0.0279
  298DOPC   H6R41041   2.941   6.188   2.709 -0.7905 -0.1368 -1.0668
  298DOPC   H6S41042   2.859   6.326   2.779  1.2591 -0.3570  2.5876
  298DOPC   C2741043   3.069   6.312   2.843 -0.0089 -0.0672 -0.1816
  298DOPC   H7R41044   3.082   6.418   2.873 -2.3733  0.6837 -1.4973
  298DOPC   H7S41045   3.168   6.284   2.801  0.2125 -0.2176  0.4369
  298DOPC   C2841046   3.037   6.220   2.963  0.7672 -0.8054 -0.0629
  298DOPC   H8R41047   3.051   6.118   2.920 -1.2565 -1.0715 -0.1769
  298DOPC   H8S41048   2.928   6.226   2.984  0.6962 -4.7878  1.6162
  298DOPC   C2941049   3.110   6.247   3.093 -0.2839  0.7997 -0.3414
  298DOPC   H9R41050   3.217   6.261   3.071  0.1570 -1.7524 -0.1260
  298DOPC  C21041051   3.066   6.273   3.216 -0.6952  0.4186 -0.3884
  298DOPC  H10R41052   3.136   6.312   3.292  0.5431 -3.1264  0.4600
  298DOPC  C21141053   2.915   6.274   3.241 -0.1369  0.0785 -0.0562
  298DOPC  H11R41054   2.914   6.214   3.335  1.7932 -2.4293 -1.5028
  298DOPC  H11S41055   2.865   6.218   3.160  0.3698 -0.4747  0.0069
  298DOPC  C21241056   2.850   6.414   3.260 -0.8755 -0.0897  0.4738
  298DOPC  H12R41057   2.901   6.454   3.350  0.6054  1.4156 -0.9510
  298DOPC  H12S41058   2.741   6.407   3.275 -0.9433  0.8675  0.4958
  298DOPC  C21341059   2.858   6.508   3.134  0.6217 -0.0356 -0.6781
  298DOPC  H13R41060   2.964   6.498   3.101  0.2538 -0.9128 -1.6303
  298DOPC  H13S41061   2.824   6.609   3.163  1.0026 -0.7051  2.4391
  298DOPC  C21441062   2.760   6.473   3.024 -0.0844 -0.6683 -0.6270
  298DOPC  H14R41063   2.661   6.437   3.057  0.1273 -0.5209  0.1930
  298DOPC  H14S41064   2.801   6.384   2.971 -1.8690 -2.2133  0.4653
  298DOPC  C21541065   2.730   6.593   2.925 -0.6418 -0.3151 -0.6003
  298DOPC  H15R41066   2.817   6.618   2.860 -1.0644  0.1611 -0.9979
  298DOPC  H15S41067   2.715   6.678   2.995 -0.3461 -0.4345 -0.3921
  298DOPC  C21641068   2.600   6.567   2.844  0.0415 -0.1601 -0.4360
  298DOPC  H16R41069   2.504   6.571   2.899 -0.4806  1.0765 -1.3814
  298DOPC  H16S41070   2.617   6.462   2.812  1.3155 -0.4905  1.2008
  298DOPC  C21741071   2.591   6.660   2.727  0.0034 -0.0834 -0.0083
  298DOPC  H17R41072   2.682   6.644   2.664 -0.3938 -1.0373 -0.3543
  298DOPC  H17S41073   2.600   6.766   2.760  1.2927  0.5735 -2.2180
  298DOPC  C21841074   2.462   6.641   2.646 -0.0680  0.6830  0.4536
  298DOPC  H18R41075   2.427   6.734   2.595 -0.1108  0.3130 -0.2010
  298DOPC  H18S41076   2.378   6.634   2.719 -1.2919 -1.1960 -1.0093
  298DOPC  H18T41077   2.465   6.551   2.580 -1.1935  1.4979 -0.7795
  298DOPC   C3341078   1.904   6.772   2.326  0.5906  0.0683 -0.2271
  298DOPC   H3X41079   1.906   6.757   2.436 -0.0575 -1.8311 -0.4447
  298DOPC   H3Y41080   1.874   6.673   2.288  0.9963  0.6622 -2.1914
  298DOPC   C3441081   1.800   6.877   2.291  0.1703 -0.2033 -0.0574
  298DOPC   H4X41082   1.788   6.886   2.181 -1.6630  1.5301  0.2237
  298DOPC   H4Y41083   1.833   6.976   2.327 -2.6416  0.6609  0.3346
  298DOPC   C3541084   1.672   6.842   2.371 -0.3733 -0.4322  0.7037
  298DOPC   H5X41085   1.708   6.846   2.476  0.7100  0.4706  0.3290
  298DOPC   H5Y41086   1.652   6.736   2.347 -0.3268 -0.2985  0.0553
  298DOPC   C3641087   1.542   6.930   2.351 -0.3626  0.9916  0.1137
  298DOPC   H6X41088   1.569   7.037   2.355  1.1550  0.7033 -1.5604
  298DOPC   H6Y41089   1.511   6.910   2.246  2.0657 -0.9987 -0.3181
  298DOPC   C3741090   1.430   6.909   2.462 -0.6493  0.2272  0.0272
  298DOPC   H7X41091   1.396   6.803   2.450 -1.2514  0.4950 -0.6807
  298DOPC   H7Y41092   1.472   6.946   2.558  1.0759  1.7662 -1.2473
  298DOPC   C3841093   1.301   6.995   2.450 -0.2702 -0.1312  0.5396
  298DOPC   H8X41094   1.341   7.098   2.458  2.2184 -1.0033  0.5051
  298DOPC   H8Y41095   1.233   6.965   2.533  0.1333 -2.1874  0.1939
  298DOPC   C3941096   1.225   6.989   2.324  0.1165  0.0644  0.2201
  298DOPC   H9X41097   1.288   6.985   2.233 -1.0519 -0.2694 -0.5947
  298DOPC  C31041098   1.091   6.979   2.310  0.3008 -0.6543  0.1415
  298DOPC  H10X41099   1.059   6.965   2.206 -1.3743  0.9076  0.4032
  298DOPC  C31141100   0.989   6.990   2.416  0.4635 -0.1947  0.1257
  298DOPC  H11X41101   0.895   7.028   2.372  2.0960  2.2116 -1.5954
  298DOPC  H11Y41102   1.011   7.059   2.501 -3.6834 -1.3263  2.3874
  298DOPC  C31241103   0.957   6.857   2.465 -0.3291 -0.0281 -0.0990
  298DOPC  H12X41104   1.055   6.817   2.498 -1.4863 -2.1490  0.9815
  298DOPC  H12Y41105   0.913   6.788   2.390 -1.2964  0.5750 -0.1134
  298DOPC  C31341106   0.871   6.862   2.591  0.4528  0.2414  0.2939
  298DOPC  H13X41107   0.856   6.761   2.635 -0.1873  0.4170  0.4948
  298DOPC  H13Y41108   0.935   6.916   2.663  1.6128 -0.1482 -0.4255
  298DOPC  C31441109   0.732   6.936   2.582  1.1203 -0.1929  0.1309
  298DOPC  H14X41110   0.745   7.045   2.595 -0.0302 -0.1274  0.8887
  298DOPC  H14Y41111   0.699   6.918   2.477  2.0820  1.4239 -0.4774
  298DOPC  C31541112   0.623   6.886   2.678  0.2900 -0.0271 -0.3479
  298DOPC  H15X41113   0.622   6.775   2.665  1.2856  0.0314 -1.0285
  298DOPC  H15Y41114   0.525   6.923   2.641  0.2389 -0.1468 -0.3350
  298DOPC  C31641115   0.652   6.939   2.823 -0.3225  0.3313  0.2039
  298DOPC  H16X41116   0.760   6.965   2.831 -0.5885  1.2691  0.9569
  298DOPC  H16Y41117   0.609   7.042   2.828  2.2939  1.5629 -0.9734
  298DOPC  C31741118   0.595   6.846   2.927 -0.3438 -0.6559  0.4332
  298DOPC  H17X41119   0.484   6.855   2.929 -0.6028 -3.0833 -0.2377
  298DOPC  H17Y41120   0.614   6.738   2.912 -1.8163 -1.1373  1.6856
  298DOPC  C31841121   0.648   6.877   3.061  0.4014 -0.0326 -0.3535
  298DOPC  H18X41122   0.644   6.985   3.088 -2.4786 -0.6658  2.2075
  298DOPC  H18Y41123   0.598   6.815   3.137 -1.0665  1.5718  0.0407
  298DOPC  H18Z41124   0.757   6.856   3.070  0.4241  0.3011  0.1842
  299DOPC     N41125   4.811  10.796   1.858 -0.0285 -0.3334  0.3240
  299DOPC   C1241126   4.667  10.762   1.868  0.1547  0.0417  0.1128
  299DOPC  H12A41127   4.670  10.660   1.906 -0.0269 -0.6723 -1.7018
  299DOPC  H12B41128   4.621  10.741   1.773 -2.2095  1.5383  0.8315
  299DOPC   C1341129   4.884  10.779   1.984 -0.5129  0.2924 -0.5979
  299DOPC  H13A41130   4.877  10.683   2.035  0.7860  2.5208  4.3297
  299DOPC  H13B41131   4.989  10.801   1.977 -0.7593  1.8110  0.1436
  299DOPC  H13C41132   4.860  10.853   2.059 -0.4213 -0.2747  0.0084
  299DOPC   C1441133   4.835  10.937   1.814  0.2050 -0.1600 -0.2082
  299DOPC  H14A41134   4.780  10.956   1.723 -1.3374 -0.6401  0.5890
  299DOPC  H14B41135   4.798  11.004   1.890 -2.6722 -0.5816 -1.1113
  299DOPC  H14C41136   4.940  10.960   1.807  0.4965  0.0115  3.1816
  299DOPC   C1541137   4.867  10.710   1.755 -0.2209  0.2521 -0.0955
  299DOPC  H15A41138   4.967  10.747   1.742 -0.0914 -0.5866 -1.8396
  299DOPC  H15B41139   4.820  10.695   1.659 -0.6790  0.7248  0.0500
  299DOPC  H15C41140   4.891  10.613   1.796 -1.8376 -1.0453 -1.9741
  299DOPC   C1141141   4.582  10.845   1.973 -0.3828  0.8254  0.0651
  299DOPC  H11A41142   4.639  10.832   2.068  0.7928 -0.2252 -0.7584
  299DOPC  H11B41143   4.576  10.950   1.940 -0.4502  0.6912 -0.3561
  299DOPC     P41144   4.406  10.672   2.080  0.1368 -0.1163 -0.0471
  299DOPC   O1341145   4.500  10.555   2.074  0.5795  0.1647 -0.3947
  299DOPC   O1441146   4.268  10.639   2.044 -0.3964  0.0681  0.2867
  299DOPC   O1241147   4.454  10.780   1.976  0.1098 -0.4917 -0.5335
  299DOPC   O1141148   4.414  10.748   2.220 -0.3040  0.3224  1.4730
  299DOPC    C141149   4.364  10.887   2.211 -0.3604 -0.0038 -0.6138
  299DOPC    HA41150   4.302  10.912   2.123 -0.8125  0.2968 -0.2189
  299DOPC    HB41151   4.448  10.960   2.211  0.4059 -0.8729 -1.2741
  299DOPC    C241152   4.269  10.924   2.327 -0.4271 -0.3604  0.0327
  299DOPC    HS41153   4.224  11.021   2.298 -1.3282 -0.5504  0.7317
  299DOPC   O2141154   4.349  10.917   2.443 -0.0303  0.0255 -0.0134
  299DOPC   C2141155   4.312  10.999   2.533  0.6620 -0.0615 -0.0636
  299DOPC   O2241156   4.229  11.090   2.519  0.2842 -0.6937  0.1041
  299DOPC   C2241157   4.389  10.971   2.665  0.0184  0.0076 -0.2134
  299DOPC   H2R41158   4.494  10.940   2.648  0.7988  1.1665  2.1454
  299DOPC   H2S41159   4.337  10.888   2.718  0.8076  0.6162  1.5809
  299DOPC    C341160   4.170  10.808   2.332 -0.0951  0.2029 -0.0049
  299DOPC    HX41161   4.226  10.715   2.353 -0.3554 -0.4890 -2.1310
  299DOPC    HY41162   4.124  10.786   2.234 -1.4688  2.3197  0.1111
  299DOPC   O3141163   4.073  10.818   2.444 -0.2852  0.5062 -0.3627
  299DOPC   C3141164   3.965  10.883   2.411 -0.7922 -0.5378  0.5924
  299DOPC   O3241165   3.939  10.932   2.298 -0.0854 -0.6153  0.4902
  299DOPC   C3241166   3.874  10.907   2.530  0.4291 -0.4611 -0.3603
  299DOPC   H2X41167   3.795  10.829   2.521  1.2850 -1.1713 -2.4013
  299DOPC   H2Y41168   3.934  10.880   2.620 -1.3857 -1.9090  0.4868
  299DOPC   C2341169   4.376  11.104   2.759 -0.9584 -1.1675 -0.5012
  299DOPC   H3R41170   4.269  11.131   2.776 -0.2611  0.4321  1.7956
  299DOPC   H3S41171   4.438  11.184   2.714 -0.7492 -1.3376 -0.5110
  299DOPC   C2441172   4.434  11.067   2.898  0.0094 -0.1795 -0.1975
  299DOPC   H4R41173   4.539  11.032   2.894  0.5392  1.3467 -0.1513
  299DOPC   H4S41174   4.378  10.982   2.943  0.5035  0.2473  1.2777
  299DOPC   C2541175   4.431  11.178   3.003 -0.1840 -0.4152  0.5051
  299DOPC   H5R41176   4.330  11.223   2.999  0.1997  0.4324 -2.3080
  299DOPC   H5S41177   4.500  11.260   2.975 -0.5908 -0.7387 -1.6198
  299DOPC   C2641178   4.490  11.129   3.133 -0.1285 -0.1513  0.1697
  299DOPC   H6R41179   4.512  11.215   3.200  2.1165  0.3629 -1.1390
  299DOPC   H6S41180   4.581  11.075   3.099  1.3502  1.2622  1.6977
  299DOPC   C2741181   4.385  11.039   3.204 -0.2423  0.6648 -0.2283
  299DOPC   H7R41182   4.369  10.946   3.145  0.6053 -0.5070  1.3227
  299DOPC   H7S41183   4.289  11.093   3.219 -1.4340 -1.7993  1.8858
  299DOPC   C2841184   4.440  11.007   3.348  0.3634  0.5016 -0.4721
  299DOPC   H8R41185   4.463  11.105   3.395  0.4747  0.5179 -0.5613
  299DOPC   H8S41186   4.535  10.949   3.338  0.7853  0.9642  0.6492
  299DOPC   C2941187   4.328  10.939   3.426 -0.4222 -0.3480 -0.3977
  299DOPC   H9R41188   4.238  11.002   3.426 -1.5600 -1.9150  0.6388
  299DOPC  C21041189   4.334  10.820   3.489 -0.3576 -0.1233 -0.2394
  299DOPC  H10R41190   4.246  10.768   3.530 -1.5418  0.4773 -1.8810
  299DOPC  C21141191   4.463  10.734   3.470 -0.0958  0.4765  0.4899
  299DOPC  H11R41192   4.551  10.793   3.503 -2.1664  3.1127  1.7231
  299DOPC  H11S41193   4.482  10.692   3.369  1.9218  1.6168  0.3504
  299DOPC  C21241194   4.445  10.612   3.563  0.2509  0.1537  0.3144
  299DOPC  H12R41195   4.357  10.554   3.528  0.0359  0.7363 -0.1264
  299DOPC  H12S41196   4.434  10.634   3.671 -0.2061  3.1144 -0.2581
  299DOPC  C21341197   4.568  10.522   3.557  0.3606  0.8237 -0.3973
  299DOPC  H13R41198   4.662  10.576   3.581 -1.2895  2.8552  2.0476
  299DOPC  H13S41199   4.578  10.495   3.450 -0.4329 -0.2259 -0.2185
  299DOPC  C21441200   4.568  10.398   3.649  0.3131  0.4613 -0.7894
  299DOPC  H14R41201   4.472  10.343   3.639  0.6914 -0.4054  0.2042
  299DOPC  H14S41202   4.568  10.440   3.752  1.3226 -0.1223 -0.5422
  299DOPC  C21541203   4.695  10.310   3.622 -0.4984  0.7718 -0.7774
  299DOPC  H15R41204   4.776  10.386   3.608 -0.5235  0.8837 -0.3303
  299DOPC  H15S41205   4.679  10.253   3.528  1.5691  0.1882 -0.8245
  299DOPC  C21641206   4.731  10.213   3.740 -0.4331 -0.8542 -0.5169
  299DOPC  H16R41207   4.638  10.161   3.771 -0.7875  0.3421  0.5490
  299DOPC  H16S41208   4.756  10.272   3.832 -0.0133  0.2578 -1.3206
  299DOPC  C21741209   4.845  10.121   3.704  0.3789  0.0054  0.5340
  299DOPC  H17R41210   4.810  10.082   3.606  1.1380 -0.3186  0.3825
  299DOPC  H17S41211   4.846  10.041   3.781 -2.3023 -1.7359 -1.0626
  299DOPC  C21841212   4.980  10.202   3.692  0.1294 -0.3463  0.3786
  299DOPC  H18R41213   5.023  10.233   3.789  1.4503 -0.0138 -0.2865
  299DOPC  H18S41214   4.961  10.302   3.647  1.9041 -0.3976 -0.5915
  299DOPC  H18T41215   5.055  10.143   3.635  0.1497 -0.1454  0.1891
  299DOPC   C3341216   3.826  11.053   2.550  0.2125 -0.2929  0.1251
  299DOPC   H3X41217   3.804  11.089   2.448 -1.5009  1.8767  1.1786
  299DOPC   H3Y41218   3.914  11.109   2.589  0.0475  2.3052 -2.8040
  299DOPC   C3441219   3.701  11.058   2.631 -0.0361  0.2927  0.2770
  299DOPC   H4X41220   3.706  11.001   2.727  0.4352 -0.4570 -0.1797
  299DOPC   H4Y41221   3.621  11.002   2.578 -0.1291 -1.1277  1.8430
  299DOPC   C3541222   3.632  11.196   2.656  1.1431 -0.7184 -0.2239
  299DOPC   H5X41223   3.590  11.236   2.561 -0.9595 -0.8804  0.5674
  299DOPC   H5Y41224   3.714  11.266   2.682  1.7248 -0.0764 -3.4392
  299DOPC   C3641225   3.509  11.215   2.758 -0.8290  0.0657 -0.2765
  299DOPC   H6X41226   3.474  11.321   2.758 -0.7861  0.1171  1.9819
  299DOPC   H6Y41227   3.433  11.147   2.713 -0.1515 -0.9410  0.0849
  299DOPC   C3741228   3.539  11.156   2.895  0.0562  0.0404  0.0686
  299DOPC   H7X41229   3.570  11.051   2.880  0.8709  0.1015  1.2679
  299DOPC   H7Y41230   3.628  11.207   2.938  0.9441 -0.5295 -1.0347
  299DOPC   C3841231   3.422  11.155   3.002 -0.3164 -0.6585  0.2665
  299DOPC   H8X41232   3.392  11.257   3.036  0.6446 -0.9300  2.0722
  299DOPC   H8Y41233   3.460  11.106   3.094 -0.1291 -0.5157  0.2654
  299DOPC   C3941234   3.301  11.078   2.957 -0.1237  0.1677 -0.0995
  299DOPC   H9X41235   3.234  11.125   2.884 -2.1716 -0.3272  1.3720
  299DOPC  C31041236   3.246  10.973   3.019  0.1994  0.0395  0.5715
  299DOPC  H10X41237   3.163  10.919   2.971 -0.0704 -0.2390  1.3377
  299DOPC  C31141238   3.276  10.924   3.157  0.5363 -0.0847  0.6464
  299DOPC  H11X41239   3.386  10.905   3.164  0.2885 -1.1962  2.0816
  299DOPC  H11Y41240   3.222  10.829   3.175  1.2885 -1.1661 -2.3177
  299DOPC  C31241241   3.245  11.025   3.272  0.0125  0.7464 -0.0289
  299DOPC  H12X41242   3.137  11.047   3.269 -0.4266 -1.0230  1.3314
  299DOPC  H12Y41243   3.310  11.115   3.261  1.1924 -0.0701  0.0706
  299DOPC  C31341244   3.284  10.951   3.404 -0.3524  0.0378  0.0566
  299DOPC  H13X41245   3.229  10.855   3.406  2.1542 -1.4831  0.3643
  299DOPC  H13Y41246   3.392  10.924   3.401 -0.6771 -1.2880 -0.1200
  299DOPC  C31441247   3.257  11.031   3.531 -0.5902  0.1819 -0.0438
  299DOPC  H14X41248   3.325  11.119   3.534  0.2845 -0.5067  1.2580
  299DOPC  H14Y41249   3.156  11.072   3.511 -0.6324  0.0093 -0.1995
  299DOPC  C31541250   3.287  10.966   3.661 -0.4775 -0.2461  0.0832
  299DOPC  H15X41251   3.387  10.918   3.652  0.3001  1.4353 -0.7804
  299DOPC  H15Y41252   3.215  10.883   3.670 -0.0230 -0.7495 -0.8228
  299DOPC  C31641253   3.289  11.058   3.793  0.6609  0.8472 -0.2395
  299DOPC  H16X41254   3.331  10.989   3.869 -0.0186  0.6116 -0.0737
  299DOPC  H16Y41255   3.363  11.139   3.773  0.9690  1.0216  1.4434
  299DOPC  C31741256   3.156  11.119   3.838  0.3358 -0.2630  0.4319
  299DOPC  H17X41257   3.101  11.149   3.747 -1.4203  0.1317  1.5754
  299DOPC  H17Y41258   3.089  11.043   3.882 -0.2050  0.0001  0.0701
  299DOPC  C31841259   3.165  11.238   3.936  0.3927  0.1070 -0.3756
  299DOPC  H18X41260   3.063  11.281   3.944  0.4710  0.3832 -0.8142
  299DOPC  H18Y41261   3.214  11.203   4.029 -1.7926 -0.1234  0.7355
  299DOPC  H18Z41262   3.232  11.318   3.897  0.8875 -0.2221 -0.2103
  300DOPC     N41263   9.156   4.886   1.489 -0.0731  0.6575 -0.6734
  300DOPC   C1241264   9.204   4.802   1.604  1.3834  0.3152  0.6903
  300DOPC  H12A41265   9.285   4.752   1.554  0.6018 -1.3950  1.0638
  300DOPC  H12B41266   9.131   4.726   1.626  0.0882  1.3784  0.1861
  300DOPC   C1341267   9.027   4.952   1.518 -0.0584 -0.2400 -0.2708
  300DOPC  H13A41268   8.946   4.881   1.532 -0.1953 -0.0739 -0.2224
  300DOPC  H13B41269   9.038   5.002   1.612  2.2269 -3.7452  1.5334
  300DOPC  H13C41270   8.996   5.026   1.445 -1.1879 -1.5568 -1.2073
  300DOPC   C1441271   9.136   4.808   1.367  0.3349  0.1038 -0.3679
  300DOPC  H14A41272   9.234   4.777   1.333  0.0087 -0.0983 -1.1587
  300DOPC  H14B41273   9.083   4.715   1.382  1.3512 -0.3729  0.3648
  300DOPC  H14C41274   9.084   4.855   1.284 -0.2636 -1.9047 -1.2048
  300DOPC   C1541275   9.251   4.997   1.460 -0.8220  0.2670 -0.4149
  300DOPC  H15A41276   9.237   5.047   1.365  0.9190 -0.6324 -1.1857
  300DOPC  H15B41277   9.354   4.964   1.460 -0.0966  2.3727 -0.4382
  300DOPC  H15C41278   9.242   5.072   1.537 -1.3778 -0.2837  0.0679
  300DOPC   C1141279   9.249   4.873   1.728  0.0708 -0.5615  0.3936
  300DOPC  H11A41280   9.272   4.796   1.805  1.8729 -1.2549 -0.7706
  300DOPC  H11B41281   9.346   4.923   1.709  0.1595 -0.7952  0.2246
  300DOPC     P41282   9.011   4.915   1.851 -0.3287 -0.1224 -0.1393
  300DOPC   O1341283   8.996   4.771   1.842  0.0084  0.3764  0.4227
  300DOPC   O1441284   8.906   4.995   1.793 -0.4855 -0.5530 -0.2878
  300DOPC   O1241285   9.144   4.958   1.786 -0.4775  0.7819  0.0857
  300DOPC   O1141286   9.032   4.937   2.007 -0.2697 -0.4347  0.0415
  300DOPC    C141287   9.142   5.025   2.061  0.6791 -0.1484 -0.1170
  300DOPC    HA41288   9.159   5.126   2.017 -0.5139  0.1557  0.0845
  300DOPC    HB41289   9.242   4.980   2.045  1.2009  1.6568 -2.6097
  300DOPC    C241290   9.124   5.045   2.212  0.3058 -0.1373  0.0906
  300DOPC    HS41291   9.217   5.097   2.245 -0.2555  0.9248  0.0406
  300DOPC   O2141292   9.095   4.920   2.279 -0.2168 -0.5983  0.0308
  300DOPC   C2141293   9.202   4.833   2.295  0.7594  0.3242  0.2486
  300DOPC   O2241294   9.309   4.857   2.244  0.4571 -0.1743  0.0579
  300DOPC   C2241295   9.181   4.719   2.396  0.4682  0.1992  0.2602
  300DOPC   H2R41296   9.136   4.634   2.341  0.9864 -1.7480  2.6474
  300DOPC   H2S41297   9.098   4.753   2.463 -0.7093 -1.4203 -0.3087
  300DOPC    C341298   9.015   5.146   2.256 -0.6406  0.0075 -0.1972
  300DOPC    HX41299   8.917   5.115   2.214 -0.4289 -4.1708  1.8687
  300DOPC    HY41300   9.039   5.243   2.207 -0.5779  1.6715  2.8501
  300DOPC   O3141301   9.006   5.172   2.397  0.0923 -0.4680 -0.1028
  300DOPC   C3141302   8.915   5.113   2.464  0.2962 -0.0374  0.1199
  300DOPC   O3241303   8.818   5.053   2.421  0.5353  0.3540 -0.2525
  300DOPC   C3241304   8.932   5.151   2.612 -0.1058  0.2553 -0.1575
  300DOPC   H2X41305   8.944   5.056   2.670 -0.3254  1.0839  1.2830
  300DOPC   H2Y41306   9.026   5.207   2.631  0.3024 -0.7310  0.8878
  300DOPC   C2341307   9.306   4.676   2.467  0.8287 -0.7171 -0.4623
  300DOPC   H3R41308   9.363   4.768   2.494 -0.0781 -0.3754  0.3730
  300DOPC   H3S41309   9.368   4.610   2.403 -0.5650 -1.5062 -1.0387
  300DOPC   C2441310   9.290   4.607   2.603  0.3470  0.1607 -0.5604
  300DOPC   H4R41311   9.227   4.517   2.581 -3.1012  2.5032 -1.1202
  300DOPC   H4S41312   9.228   4.677   2.663  1.6812  0.3602  0.6251
  300DOPC   C2541313   9.418   4.576   2.670 -0.4148 -0.2435  0.2121
  300DOPC   H5R41314   9.473   4.670   2.692 -3.1762  1.6194 -0.3093
  300DOPC   H5S41315   9.470   4.513   2.595 -0.3377 -1.5105  1.2796
  300DOPC   C2641316   9.387   4.485   2.794 -0.6239  0.4093  0.3020
  300DOPC   H6R41317   9.317   4.405   2.761 -1.1197  1.2272 -0.7090
  300DOPC   H6S41318   9.334   4.541   2.873  0.0579 -0.0066  1.0656
  300DOPC   C2741319   9.513   4.430   2.866 -0.2694  0.2819 -0.7659
  300DOPC   H7R41320   9.586   4.505   2.902 -0.1726 -0.3505  0.4064
  300DOPC   H7S41321   9.558   4.376   2.780 -0.5566 -1.1142 -0.0652
  300DOPC   C2841322   9.483   4.353   2.993 -0.2756  0.2023 -0.3919
  300DOPC   H8R41323   9.423   4.265   2.962 -0.5699  0.6807 -1.1968
  300DOPC   H8S41324   9.416   4.410   3.060  1.1964  0.8672  0.5722
  300DOPC   C2941325   9.610   4.309   3.060  0.4239  0.0040 -0.2582
  300DOPC   H9R41326   9.703   4.332   3.008  0.6876 -1.9307 -0.6925
  300DOPC  C21041327   9.625   4.220   3.160  0.4713  0.4258 -0.4209
  300DOPC  H10R41328   9.724   4.217   3.208  0.0807  2.9222  0.7434
  300DOPC  C21141329   9.503   4.143   3.208  0.6873 -0.2245  0.0229
  300DOPC  H11R41330   9.482   4.046   3.159 -2.7300  1.1441 -1.5583
  300DOPC  H11S41331   9.408   4.195   3.184  1.7510  1.9751  0.3033
  300DOPC  C21241332   9.516   4.097   3.354  0.0090  0.1207 -0.3090
  300DOPC  H12R41333   9.607   4.034   3.356  0.0690  0.0284 -2.7378
  300DOPC  H12S41334   9.433   4.031   3.387 -0.4343 -0.1416 -1.8556
  300DOPC  C21341335   9.515   4.208   3.457 -0.2747 -0.4683 -0.1341
  300DOPC  H13R41336   9.428   4.275   3.439  2.4417  3.7449  1.0484
  300DOPC  H13S41337   9.608   4.268   3.461 -1.3380  1.4941 -2.2442
  300DOPC  C21441338   9.505   4.148   3.604 -0.0665 -0.6615  0.1472
  300DOPC  H14R41339   9.568   4.058   3.619  0.4374 -0.3009  0.1982
  300DOPC  H14S41340   9.400   4.114   3.619 -0.2388 -1.2865 -2.0470
  300DOPC  C21541341   9.547   4.265   3.700  0.0287 -0.3100  0.6651
  300DOPC  H15R41342   9.495   4.361   3.678 -0.6839 -1.2209 -1.9267
  300DOPC  H15S41343   9.656   4.283   3.690 -0.1997  0.1839 -1.3123
  300DOPC  C21641344   9.527   4.234   3.846  0.6315  0.1530  0.0302
  300DOPC  H16R41345   9.419   4.209   3.856  0.1212  2.1536 -0.0463
  300DOPC  H16S41346   9.539   4.330   3.901 -2.1286 -0.3137  1.6618
  300DOPC  C21741347   9.617   4.132   3.912 -0.4728 -0.2796 -0.4442
  300DOPC  H17R41348   9.649   4.170   4.012 -0.9071 -1.1463  0.0343
  300DOPC  H17S41349   9.712   4.128   3.854 -0.2432  1.3555 -0.2532
  300DOPC  C21841350   9.556   3.993   3.940  0.1913 -0.1102  0.3593
  300DOPC  H18R41351   9.632   3.913   3.953 -0.5930 -0.8570  0.4018
  300DOPC  H18S41352   9.492   3.953   3.859 -0.3480 -0.2806  0.8697
  300DOPC  H18T41353   9.498   4.004   4.033 -0.7516 -0.8660 -0.1177
  300DOPC   C3341354   8.811   5.217   2.691 -0.0564 -0.0564  0.4808
  300DOPC   H3X41355   8.724   5.161   2.651  0.4206  0.4049 -1.3074
  300DOPC   H3Y41356   8.807   5.325   2.663 -0.2027 -0.0665  0.4643
  300DOPC   C3441357   8.839   5.210   2.840 -0.0299  0.2619 -0.9083
  300DOPC   H4X41358   8.933   5.268   2.849 -0.1726  0.2620  0.8987
  300DOPC   H4Y41359   8.871   5.105   2.861 -0.5416  0.4924  1.2987
  300DOPC   C3541360   8.722   5.254   2.925 -0.3934  1.1851  0.0682
  300DOPC   H5X41361   8.625   5.221   2.880 -0.2231  0.1856  0.4162
  300DOPC   H5Y41362   8.700   5.363   2.920 -0.0390  1.3854  2.1478
  300DOPC   C3641363   8.745   5.208   3.070  0.3756  0.4422  0.1040
  300DOPC   H6X41364   8.759   5.099   3.054  1.4105  0.3344  1.5209
  300DOPC   H6Y41365   8.835   5.260   3.108  0.2659  0.8052 -0.1248
  300DOPC   C3741366   8.617   5.233   3.150 -0.3331 -0.2731  0.0642
  300DOPC   H7X41367   8.600   5.341   3.127  2.6606  0.8130  2.2419
  300DOPC   H7Y41368   8.529   5.172   3.121 -0.5979  1.0048 -2.0292
  300DOPC   C3841369   8.642   5.232   3.306  0.1766 -0.2730  0.3330
  300DOPC   H8X41370   8.555   5.269   3.363 -1.1025  2.1245 -2.8461
  300DOPC   H8Y41371   8.726   5.302   3.328 -0.7642  0.7206  0.8386
  300DOPC   C3941372   8.687   5.098   3.342  0.0881  0.0805  0.1191
  300DOPC   H9X41373   8.614   5.018   3.325  2.7723 -2.1166 -1.9114
  300DOPC  C31041374   8.810   5.059   3.389 -0.3303 -0.0526  0.0699
  300DOPC  H10X41375   8.823   4.953   3.416 -0.0552  0.0007  0.1448
  300DOPC  C31141376   8.927   5.152   3.412 -0.0036  0.1150  0.4864
  300DOPC  H11X41377   8.895   5.241   3.471  1.0918  0.9732 -0.1768
  300DOPC  H11Y41378   8.983   5.192   3.325 -0.2258 -0.7967 -0.0827
  300DOPC  C31241379   9.031   5.082   3.507  0.3099  0.0394 -0.3704
  300DOPC  H12X41380   9.075   4.996   3.453  2.6687 -0.6221  2.3863
  300DOPC  H12Y41381   8.986   5.051   3.603 -0.3254  1.2599 -0.2435
  300DOPC  C31341382   9.155   5.170   3.538  0.3863 -0.4446 -0.0219
  300DOPC  H13X41383   9.204   5.196   3.441  0.5696  1.1480  0.4640
  300DOPC  H13Y41384   9.126   5.267   3.584  0.1645 -1.4165  1.9793
  300DOPC  C31441385   9.247   5.108   3.642  0.2022 -0.4627 -0.2777
  300DOPC  H14X41386   9.188   5.093   3.735  1.3570 -0.8218  0.4087
  300DOPC  H14Y41387   9.277   5.006   3.611 -0.1083 -1.1617  1.5915
  300DOPC  C31541388   9.376   5.189   3.676  0.3896  0.7497  0.0987
  300DOPC  H15X41389   9.356   5.289   3.721  3.6323  2.5209 -2.0429
  300DOPC  H15Y41390   9.431   5.210   3.582 -0.5024 -2.4006 -1.2473
  300DOPC  C31641391   9.464   5.099   3.769 -0.3174 -0.4356 -0.3964
  300DOPC  H16X41392   9.408   5.066   3.858 -0.9007  0.1973 -0.5213
  300DOPC  H16Y41393   9.497   5.010   3.712  0.9654 -1.2612  1.5325
  300DOPC  C31741394   9.589   5.176   3.823  0.3873 -0.4871 -0.5515
  300DOPC  H17X41395   9.655   5.204   3.738 -0.1909 -0.4572 -0.9975
  300DOPC  H17Y41396   9.564   5.269   3.880 -0.8945 -0.7558 -0.6412
  300DOPC  C31841397   9.678   5.098   3.921  0.4441 -0.0753 -0.0896
  300DOPC  H18X41398   9.731   5.020   3.862  2.0092  3.4920 -3.8890
  300DOPC  H18Y41399   9.754   5.168   3.961 -0.3742  0.7625  0.0377
  300DOPC  H18Z41400   9.624   5.054   4.008  2.4161  2.1687  2.4202
  301DOPC     N41401  10.615   8.394   1.170 -0.2016 -0.6541  0.0110
  301DOPC   C1241402  10.574   8.297   1.278  0.2529  0.1935  0.3473
  301DOPC  H12A41403  10.653   8.295   1.353  1.0232 -0.6533 -0.4687
  301DOPC  H12B41404  10.556   8.199   1.239 -1.9045  0.8978 -0.6040
  301DOPC   C1341405  10.498   8.432   1.087  0.4304  0.3249  0.0937
  301DOPC  H13A41406  10.412   8.454   1.148  0.1341 -0.4465 -0.0332
  301DOPC  H13B41407  10.516   8.522   1.030 -1.4894 -0.7432 -2.3841
  301DOPC  H13C41408  10.478   8.351   1.019  1.0153 -0.7135  1.1252
  301DOPC   C1441409  10.724   8.329   1.085  0.1546 -0.4658  0.0256
  301DOPC  H14A41410  10.813   8.302   1.140  0.1666  3.4404  2.2754
  301DOPC  H14B41411  10.677   8.245   1.036 -1.8787  0.1013  0.9049
  301DOPC  H14C41412  10.743   8.395   1.002 -1.2043 -0.2080 -0.1074
  301DOPC   C1541413  10.669   8.524   1.233  0.5392  0.0458  0.1602
  301DOPC  H15A41414  10.609   8.567   1.312  2.8062 -1.0743  2.6389
  301DOPC  H15B41415  10.682   8.602   1.159 -0.4792  0.7120  0.6675
  301DOPC  H15C41416  10.763   8.501   1.280  0.5329  0.2199  0.2573
  301DOPC   C1141417  10.445   8.332   1.366  0.4500  0.2181  0.4539
  301DOPC  H11A41418  10.358   8.369   1.308  0.7257 -0.1929 -0.2420
  301DOPC  H11B41419  10.416   8.236   1.413  1.3659  0.1141  0.8202
  301DOPC     P41420  10.535   8.394   1.605  0.0202  0.0153  0.0229
  301DOPC   O1341421  10.547   8.518   1.686  0.0200  0.1954  0.1891
  301DOPC   O1441422  10.656   8.310   1.590 -0.4153  0.2783  0.1807
  301DOPC   O1241423  10.472   8.438   1.463 -0.1986  0.5956 -0.3298
  301DOPC   O1141424  10.425   8.309   1.677 -0.3181 -0.1546 -0.1938
  301DOPC    C141425  10.308   8.373   1.731 -0.6804  0.1890 -0.8594
  301DOPC    HA41426  10.219   8.327   1.684 -2.5155  1.9755  0.7187
  301DOPC    HB41427  10.294   8.483   1.721 -2.4960  0.2414  1.4699
  301DOPC    C241428  10.295   8.336   1.881 -0.4055  0.0086 -0.0856
  301DOPC    HS41429  10.372   8.392   1.938  0.1090 -0.5419 -0.2200
  301DOPC   O2141430  10.303   8.192   1.894  0.1447 -0.1658 -0.1428
  301DOPC   C2141431  10.374   8.151   2.003 -0.3730 -0.6103 -0.3132
  301DOPC   O2241432  10.435   8.228   2.075  0.1949 -0.1923 -0.1505
  301DOPC   C2241433  10.388   7.998   1.991 -0.3130  0.9577 -0.2358
  301DOPC   H2R41434  10.494   7.968   2.002 -0.8192 -0.0097  3.4272
  301DOPC   H2S41435  10.356   7.962   1.890 -2.5117 -3.9431  1.8793
  301DOPC    C341436  10.166   8.400   1.943  0.0838  0.0228 -0.4510
  301DOPC    HX41437  10.093   8.328   1.900 -0.9375 -0.4592  1.9330
  301DOPC    HY41438  10.148   8.503   1.905  2.6531  0.8625  0.4261
  301DOPC   O3141439  10.171   8.397   2.090 -0.3027 -1.0100  0.4974
  301DOPC   C3141440  10.118   8.296   2.155  0.1293  0.7425 -0.0460
  301DOPC   O3241441  10.081   8.192   2.099  0.0540 -0.1241  0.0413
  301DOPC   C3241442  10.141   8.319   2.308 -0.1094  0.5410 -0.0528
  301DOPC   H2X41443  10.058   8.385   2.341 -1.7733 -1.4874 -0.0070
  301DOPC   H2Y41444  10.120   8.220   2.354  0.2027  0.8432  0.7557
  301DOPC   C2341445  10.295   7.927   2.093 -0.5927  0.7349  0.4737
  301DOPC   H3R41446  10.278   7.821   2.063 -1.9588  0.9437  0.4455
  301DOPC   H3S41447  10.193   7.971   2.088 -0.5014  1.3093  2.4844
  301DOPC   C2441448  10.340   7.937   2.243 -0.2098 -0.0895  1.1242
  301DOPC   H4R41449  10.344   8.038   2.290  2.0451  0.4477 -0.0666
  301DOPC   H4S41450  10.442   7.893   2.243 -0.4293 -0.7605 -1.3259
  301DOPC   C2541451  10.257   7.854   2.336 -0.1186 -0.1348  0.7651
  301DOPC   H5R41452  10.307   7.841   2.435 -0.5896 -0.7904  0.9229
  301DOPC   H5S41453  10.241   7.754   2.292 -0.1685 -0.0546  0.6024
  301DOPC   C2641454  10.121   7.910   2.379 -0.3375  0.3744 -0.1840
  301DOPC   H6R41455  10.064   7.921   2.285  2.4624 -2.0107 -2.3606
  301DOPC   H6S41456  10.127   8.006   2.434 -0.0851  0.2190  0.0652
  301DOPC   C2741457  10.042   7.806   2.464 -0.4774  0.4846 -0.3144
  301DOPC   H7R41458  10.053   7.704   2.422  1.4744 -0.6016  2.5430
  301DOPC   H7S41459   9.934   7.830   2.462 -0.3919  0.9214 -0.0036
  301DOPC   C2841460  10.095   7.793   2.608 -0.1013 -0.3970 -0.0026
  301DOPC   H8R41461  10.079   7.896   2.647  1.1231 -0.4593  0.7480
  301DOPC   H8S41462  10.206   7.785   2.614  0.4614  3.8581 -1.2548
  301DOPC   C2941463  10.012   7.702   2.692  0.4289 -0.1285 -0.3480
  301DOPC   H9R41464   9.904   7.707   2.669  0.9841 -0.3636 -3.3947
  301DOPC  C21041465  10.062   7.626   2.796  0.1574  0.9661 -0.4210
  301DOPC  H10R41466   9.992   7.578   2.867 -0.7698  0.2426 -1.7779
  301DOPC  C21141467  10.207   7.631   2.852  1.1179  0.2937  0.3497
  301DOPC  H11R41468  10.256   7.729   2.835 -1.9688  1.9485  0.2077
  301DOPC  H11S41469  10.259   7.554   2.792  1.4768 -0.0777  1.1224
  301DOPC  C21241470  10.217   7.587   2.999  0.0073  0.4154 -0.5773
  301DOPC  H12R41471  10.155   7.662   3.052 -0.9207  0.0099 -1.0557
  301DOPC  H12S41472  10.325   7.598   3.023 -0.0955  0.3412 -0.0754
  301DOPC  C21341473  10.151   7.448   3.035 -0.0638  0.6959  1.2925
  301DOPC  H13R41474  10.198   7.372   2.969  0.0870  0.9359  1.1176
  301DOPC  H13S41475  10.043   7.457   3.012  0.4691  0.9082 -1.5582
  301DOPC  C21441476  10.174   7.398   3.175 -0.4208 -0.0956  0.2979
  301DOPC  H14R41477  10.137   7.467   3.254  0.0112 -0.7455  1.0736
  301DOPC  H14S41478  10.282   7.382   3.192 -0.0785  1.7997  0.1756
  301DOPC  C21541479  10.107   7.259   3.190 -0.8163 -0.1379 -0.5502
  301DOPC  H15R41480  10.129   7.191   3.105 -0.3188 -1.1259  0.3509
  301DOPC  H15S41481   9.997   7.271   3.194 -0.8702  0.0120 -1.8236
  301DOPC  C21641482  10.159   7.182   3.321 -0.0453  0.2027  0.0985
  301DOPC  H16R41483  10.089   7.219   3.398  1.2463 -0.6696  1.7374
  301DOPC  H16S41484  10.267   7.205   3.337  0.4766 -1.2146 -1.0189
  301DOPC  C21741485  10.143   7.025   3.309  0.5517 -0.1317 -0.1818
  301DOPC  H17R41486  10.035   7.007   3.290 -0.1709  2.1616  1.3741
  301DOPC  H17S41487  10.162   6.975   3.407  0.3488 -0.8276 -0.4925
  301DOPC  C21841488  10.230   6.960   3.198  0.4195  0.2335  0.0668
  301DOPC  H18R41489  10.336   6.991   3.216  0.1820 -0.0408  2.2457
  301DOPC  H18S41490  10.186   7.003   3.106 -0.5327  1.4065  1.0239
  301DOPC  H18T41491  10.222   6.850   3.200  1.4578  0.1487  0.6015
  301DOPC   C3341492  10.276   8.383   2.344 -0.5584 -0.1250  0.0810
  301DOPC   H3X41493  10.274   8.491   2.319 -0.7209  0.6204  3.0363
  301DOPC   H3Y41494  10.358   8.340   2.283 -0.1368  0.6679  0.0758
  301DOPC   C3441495  10.305   8.368   2.491  0.1020 -0.0754 -0.3890
  301DOPC   H4X41496  10.249   8.440   2.554 -1.3656 -1.0868 -0.4780
  301DOPC   H4Y41497  10.411   8.400   2.500 -0.1106  1.6655 -2.9621
  301DOPC   C3541498  10.289   8.239   2.556 -0.3358  0.0113 -0.3336
  301DOPC   H5X41499  10.335   8.151   2.507 -0.3134  1.0581 -2.2963
  301DOPC   H5Y41500  10.179   8.222   2.564 -0.6066  0.4703 -2.5582
  301DOPC   C3641501  10.337   8.244   2.700 -0.0242 -0.0402  0.0529
  301DOPC   H6X41502  10.447   8.254   2.715  0.5512 -0.3819 -3.2837
  301DOPC   H6Y41503  10.294   8.335   2.747 -1.7826 -0.7534 -0.1307
  301DOPC   C3741504  10.265   8.124   2.771 -0.1420  0.0498  0.2537
  301DOPC   H7X41505  10.169   8.101   2.720 -0.0770  1.0254 -0.3261
  301DOPC   H7Y41506  10.318   8.028   2.752  0.8090  0.7970 -1.0394
  301DOPC   C3841507  10.254   8.135   2.919 -0.5033 -0.7275  0.3746
  301DOPC   H8X41508  10.186   8.220   2.940 -2.2515 -2.0098  0.1187
  301DOPC   H8Y41509  10.360   8.152   2.948 -0.4150 -1.9208  0.8343
  301DOPC   C3941510  10.210   8.018   2.999 -0.4861 -0.0342 -0.7961
  301DOPC   H9X41511  10.239   7.925   2.947  1.4524  0.7391 -1.1634
  301DOPC  C31041512  10.140   8.023   3.118  0.6175 -0.1280 -1.0069
  301DOPC  H10X41513  10.117   7.929   3.171 -2.3156  1.1568  0.1972
  301DOPC  C31141514  10.102   8.143   3.198  0.0751  0.0483  0.1711
  301DOPC  H11X41515  10.000   8.134   3.242  0.1951  0.1335  0.4689
  301DOPC  H11Y41516  10.125   8.237   3.144 -0.0732 -0.1277 -0.1978
  301DOPC  C31241517  10.193   8.148   3.325 -0.0519  0.1778 -0.5064
  301DOPC  H12X41518  10.182   8.248   3.370 -1.1718 -0.8310  1.6089
  301DOPC  H12Y41519  10.298   8.142   3.291  0.3449  1.0337  0.5370
  301DOPC  C31341520  10.156   8.038   3.424  0.3829 -0.0778  0.5747
  301DOPC  H13X41521  10.054   8.053   3.466  0.0391  0.4417 -0.4203
  301DOPC  H13Y41522  10.161   7.941   3.371 -0.4721 -0.2475  0.7818
  301DOPC  C31441523  10.250   8.028   3.542 -0.7028  0.2848  1.1233
  301DOPC  H14X41524  10.353   8.015   3.502 -1.3368 -0.1087 -0.4490
  301DOPC  H14Y41525  10.257   8.128   3.590  0.7197  0.7868 -0.0395
  301DOPC  C31541526  10.227   7.911   3.633 -0.2496 -0.6344 -0.2053
  301DOPC  H15X41527  10.146   7.938   3.704  2.2526  0.9996  2.2703
  301DOPC  H15Y41528  10.315   7.906   3.701 -0.2218 -1.1258 -0.2759
  301DOPC  C31641529  10.217   7.765   3.576  0.3825  0.1514  0.4878
  301DOPC  H16X41530  10.175   7.710   3.663 -2.1401 -0.7226 -1.1778
  301DOPC  H16Y41531  10.143   7.772   3.493 -0.5296 -3.3744  0.8449
  301DOPC  C31741532  10.348   7.697   3.537 -0.1629 -0.1251 -0.4637
  301DOPC  H17X41533  10.398   7.759   3.460 -1.3595 -0.4857 -1.5506
  301DOPC  H17Y41534  10.416   7.690   3.625  1.0123  0.1768 -1.3248
  301DOPC  C31841535  10.325   7.555   3.488  0.2628 -0.8844  0.1838
  301DOPC  H18X41536  10.285   7.488   3.568 -0.0910  0.1919  0.9338
  301DOPC  H18Y41537  10.256   7.558   3.401 -0.8726  1.1281  1.0822
  301DOPC  H18Z41538  10.423   7.515   3.456 -0.4978 -2.0733 -0.7586
  302DOPC     N41539   7.424   6.878   2.035 -0.4283  0.5432  0.9401
  302DOPC   C1241540   7.442   6.903   2.180 -0.3616  0.6605  0.2356
  302DOPC  H12A41541   7.496   6.996   2.193 -2.1013  1.6301  0.9138
  302DOPC  H12B41542   7.499   6.820   2.221 -0.5206 -0.7656 -2.2608
  302DOPC   C1341543   7.553   6.893   1.966 -0.4478 -0.4650  0.5540
  302DOPC  H13A41544   7.533   6.872   1.862  0.6437  0.2207  0.1858
  302DOPC  H13B41545   7.589   6.995   1.971  0.6103 -0.7463 -0.6202
  302DOPC  H13C41546   7.635   6.825   1.984  0.2409  0.1794 -0.0714
  302DOPC   C1441547   7.332   6.984   1.983 -0.2993 -0.0710 -0.3516
  302DOPC  H14A41548   7.367   7.083   2.007 -1.7731  0.6116 -0.9496
  302DOPC  H14B41549   7.328   6.979   1.875  4.2917 -0.0012 -0.7308
  302DOPC  H14C41550   7.233   6.976   2.026 -0.0456  0.6455  0.3936
  302DOPC   C1541551   7.370   6.743   2.004  0.0200  0.3300  0.4414
  302DOPC  H15A41552   7.271   6.723   2.042 -1.1871 -1.0289 -2.9501
  302DOPC  H15B41553   7.425   6.662   2.050  0.9029 -0.0097 -1.1191
  302DOPC  H15C41554   7.350   6.724   1.899  0.5858  2.8260 -0.1719
  302DOPC   C1141555   7.316   6.935   2.265  0.3476  0.1815 -0.5395
  302DOPC  H11A41556   7.339   6.944   2.373  0.9936 -0.1174 -0.6462
  302DOPC  H11B41557   7.289   7.036   2.229 -0.2555 -0.1436 -1.0169
  302DOPC     P41558   7.060   6.891   2.225  0.2578  0.0126  0.4014
  302DOPC   O1341559   6.971   6.783   2.272  0.1618 -0.2304  0.1890
  302DOPC   O1441560   7.045   6.937   2.089  0.1830  0.0564 -0.4889
  302DOPC   O1241561   7.208   6.842   2.246 -0.1632  0.8946  0.0369
  302DOPC   O1141562   7.043   7.014   2.320 -0.5334  0.2456  0.3673
  302DOPC    C141563   7.002   6.989   2.449  0.5014 -0.0227  0.4707
  302DOPC    HA41564   7.079   6.925   2.498 -1.1890 -2.7589 -0.2520
  302DOPC    HB41565   6.905   6.935   2.458  0.5165  0.0796  1.3708
  302DOPC    C241566   6.998   7.122   2.531  0.6136 -0.2894  0.9140
  302DOPC    HS41567   6.948   7.109   2.629  0.2484 -1.8064  0.5607
  302DOPC   O2141568   6.927   7.228   2.467  0.2666 -0.0405 -0.3201
  302DOPC   C2141569   6.797   7.214   2.463 -0.3142 -0.1926 -0.4927
  302DOPC   O2241570   6.729   7.118   2.490 -0.7393  0.1695 -0.4634
  302DOPC   C2241571   6.732   7.348   2.433  0.0966 -0.2507  0.5192
  302DOPC   H2R41572   6.646   7.333   2.363  0.5911 -1.0203  0.0613
  302DOPC   H2S41573   6.806   7.418   2.388  0.0971  0.1610  1.1524
  302DOPC    C341574   7.145   7.169   2.559  0.4517 -0.7380  0.2375
  302DOPC    HX41575   7.146   7.267   2.612  0.9288  0.8189 -2.4729
  302DOPC    HY41576   7.189   7.191   2.460 -2.0075 -0.3950 -0.8567
  302DOPC   O3141577   7.220   7.070   2.626  0.1288  0.5859 -0.3958
  302DOPC   C3141578   7.228   7.074   2.760 -0.1762  0.2699  0.6548
  302DOPC   O3241579   7.185   7.163   2.834 -0.4449 -0.6116  0.6857
  302DOPC   C3241580   7.305   6.951   2.814  0.9595  0.4434  0.6148
  302DOPC   H2X41581   7.222   6.879   2.830 -0.2200  0.7441 -3.2927
  302DOPC   H2Y41582   7.374   6.903   2.741  0.0617 -2.1252  1.3561
  302DOPC   C2341583   6.697   7.413   2.569 -0.2387  0.3856 -0.3309
  302DOPC   H3R41584   6.662   7.518   2.556 -0.3796  0.4844  0.7533
  302DOPC   H3S41585   6.791   7.423   2.628 -0.3416 -0.5312  0.0073
  302DOPC   C2441586   6.585   7.340   2.652  0.9569 -0.3714  0.0477
  302DOPC   H4R41587   6.570   7.405   2.740  0.8342 -1.4733  0.8607
  302DOPC   H4S41588   6.622   7.245   2.695 -0.9816 -0.3842  1.8259
  302DOPC   C2541589   6.452   7.311   2.578 -0.1937  0.1233  0.0897
  302DOPC   H5R41590   6.481   7.276   2.477  1.0793 -0.8469  0.7536
  302DOPC   H5S41591   6.400   7.407   2.558 -2.2105 -0.5881  1.4693
  302DOPC   C2641592   6.372   7.192   2.646  0.0387  0.0296  0.5591
  302DOPC   H6R41593   6.451   7.120   2.678  1.1367  0.6219 -0.7083
  302DOPC   H6S41594   6.302   7.153   2.570  0.8887  0.8935 -0.7066
  302DOPC   C2741595   6.296   7.241   2.764  0.0990  0.1441 -0.1408
  302DOPC   H7R41596   6.220   7.319   2.741  1.8269  1.6768 -0.9136
  302DOPC   H7S41597   6.377   7.274   2.832  1.4759 -1.9748 -0.6648
  302DOPC   C2841598   6.227   7.128   2.837 -0.3929  0.7049 -0.2667
  302DOPC   H8R41599   6.303   7.047   2.840 -1.2208 -0.0771  0.4848
  302DOPC   H8S41600   6.140   7.102   2.773 -0.8215 -0.2855  0.6844
  302DOPC   C2941601   6.175   7.170   2.970 -0.3247 -0.5421 -0.6380
  302DOPC   H9R41602   6.067   7.190   2.970 -0.3024 -0.2796  1.2323
  302DOPC  C21041603   6.234   7.168   3.091  0.0232  0.8589 -0.5631
  302DOPC  H10R41604   6.172   7.214   3.170  1.2125  1.1008  0.2426
  302DOPC  C21141605   6.367   7.120   3.137 -0.0196 -0.3868 -0.1922
  302DOPC  H11R41606   6.432   7.065   3.065  1.4610  0.9637  0.0549
  302DOPC  H11S41607   6.356   7.056   3.227  1.3655  0.5357  0.6688
  302DOPC  C21241608   6.449   7.244   3.177  0.4469 -0.1499 -0.9118
  302DOPC  H12R41609   6.452   7.324   3.100  0.4405 -0.5365 -1.3153
  302DOPC  H12S41610   6.551   7.212   3.205  0.7296  0.8423 -0.7664
  302DOPC  C21341611   6.399   7.305   3.317 -0.5584  0.3342 -0.3360
  302DOPC  H13R41612   6.394   7.228   3.396  0.9000 -0.8524 -1.3620
  302DOPC  H13S41613   6.295   7.343   3.312  0.0606  1.9863 -2.4604
  302DOPC  C21441614   6.473   7.433   3.370 -0.1580  0.9583 -0.0280
  302DOPC  H14R41615   6.467   7.515   3.295 -0.4861  0.8698 -0.0973
  302DOPC  H14S41616   6.581   7.406   3.377 -0.1566  0.3983 -1.7765
  302DOPC  C21541617   6.415   7.496   3.494  0.9712  0.0372  0.6259
  302DOPC  H15R41618   6.305   7.511   3.487  0.9369  0.8254  2.3433
  302DOPC  H15S41619   6.446   7.602   3.505 -1.0686  0.9280 -1.3837
  302DOPC  C21641620   6.429   7.434   3.636  0.2247 -0.2686 -0.0871
  302DOPC  H16R41621   6.379   7.335   3.644  0.8872 -0.4719  2.0346
  302DOPC  H16S41622   6.376   7.501   3.707  1.7375 -0.9039  1.7022
  302DOPC  C21741623   6.575   7.395   3.677  0.5164  0.2036  0.5068
  302DOPC  H17R41624   6.642   7.483   3.673  0.7591  0.0021 -2.3487
  302DOPC  H17S41625   6.621   7.318   3.610 -1.5098 -0.4030 -0.2712
  302DOPC  C21841626   6.584   7.324   3.809 -0.7999  0.4491 -0.3372
  302DOPC  H18R41627   6.555   7.398   3.887 -0.2134 -0.2342  0.5456
  302DOPC  H18S41628   6.689   7.291   3.829 -0.6767  1.7391  1.4010
  302DOPC  H18T41629   6.522   7.232   3.815 -2.7928  1.4650 -3.4042
  302DOPC   C3341630   7.359   6.971   2.958  0.5451  0.3135 -0.3542
  302DOPC   H3X41631   7.268   7.006   3.011  1.3246 -0.3127  1.4971
  302DOPC   H3Y41632   7.430   7.056   2.950  0.8619 -0.0509 -1.6517
  302DOPC   C3441633   7.419   6.839   3.020 -0.1654 -0.7928 -0.0317
  302DOPC   H4X41634   7.491   6.813   2.940  2.2127  2.7808  0.7063
  302DOPC   H4Y41635   7.336   6.766   3.027 -2.4399  1.3528 -2.0969
  302DOPC   C3541636   7.496   6.852   3.152  0.4158 -0.4803  0.6618
  302DOPC   H5X41637   7.424   6.915   3.208  0.7417  1.1832 -0.7145
  302DOPC   H5Y41638   7.597   6.897   3.139  0.4152  0.3834  3.0771
  302DOPC   C3641639   7.509   6.716   3.223 -0.3248  0.5738 -0.0605
  302DOPC   H6X41640   7.562   6.722   3.320 -0.1691 -0.2350 -0.0877
  302DOPC   H6Y41641   7.405   6.682   3.240 -0.6565 -0.4110 -3.3769
  302DOPC   C3741642   7.580   6.591   3.143  0.1768  0.2275  0.2589
  302DOPC   H7X41643   7.528   6.580   3.046  1.4081  0.2242 -0.4082
  302DOPC   H7Y41644   7.685   6.616   3.118 -0.6116  2.4826 -1.0698
  302DOPC   C3841645   7.559   6.455   3.215  0.8008  0.0724  0.6495
  302DOPC   H8X41646   7.584   6.363   3.158 -1.4838 -1.1706  1.4990
  302DOPC   H8Y41647   7.451   6.437   3.235  0.3411  0.6922 -1.1220
  302DOPC   C3941648   7.625   6.454   3.347  0.4235  0.3251  0.4354
  302DOPC   H9X41649   7.608   6.547   3.404  0.4706  2.0793 -2.2432
  302DOPC  C31041650   7.694   6.354   3.408 -0.8490 -0.3525 -0.4267
  302DOPC  H10X41651   7.744   6.384   3.502  1.8838 -1.2650 -1.4830
  302DOPC  C31141652   7.713   6.217   3.351  1.0940  0.2026 -0.6201
  302DOPC  H11X41653   7.646   6.197   3.264  0.2963 -0.1166  0.0481
  302DOPC  H11Y41654   7.688   6.150   3.436  1.7841  1.5747  0.6990
  302DOPC  C31241655   7.858   6.185   3.306 -0.3174 -0.3699 -0.3050
  302DOPC  H12X41656   7.934   6.202   3.386  0.3533  0.6217 -1.1302
  302DOPC  H12Y41657   7.890   6.257   3.227  5.2423  0.7960  2.4691
  302DOPC  C31341658   7.870   6.042   3.235 -0.4236  0.1518 -0.5646
  302DOPC  H13X41659   7.817   6.058   3.139  0.1000  0.3427 -0.8244
  302DOPC  H13Y41660   7.979   6.036   3.212 -0.5473  0.5930 -1.2918
  302DOPC  C31441661   7.816   5.937   3.330  0.1740  0.1068  0.3723
  302DOPC  H14X41662   7.864   5.943   3.430  0.0435  1.2493  0.3769
  302DOPC  H14Y41663   7.708   5.956   3.350 -0.0966  0.0228 -0.9390
  302DOPC  C31541664   7.851   5.795   3.276 -0.1200  0.0880 -0.1843
  302DOPC  H15X41665   7.843   5.716   3.355  1.3770  0.6876  0.6122
  302DOPC  H15Y41666   7.959   5.798   3.251 -0.0031  2.7441  0.3643
  302DOPC  C31641667   7.769   5.747   3.155  0.0388 -0.4931  0.0221
  302DOPC  H16X41668   7.660   5.742   3.179  0.3279  0.2753  1.6694
  302DOPC  H16Y41669   7.782   5.828   3.080 -0.8638 -2.1962 -2.0759
  302DOPC  C31741670   7.831   5.623   3.092  0.2576  0.1918  0.4901
  302DOPC  H17X41671   7.917   5.652   3.029 -0.6301  1.5427 -0.1439
  302DOPC  H17Y41672   7.858   5.542   3.163 -1.5309 -1.1000 -0.1954
  302DOPC  C31841673   7.738   5.555   2.990 -0.7464  0.0487  0.2640
  302DOPC  H18X41674   7.787   5.471   2.936  1.6370  1.7958 -0.4627
  302DOPC  H18Y41675   7.646   5.514   3.036 -0.5753  0.5746  1.0945
  302DOPC  H18Z41676   7.713   5.634   2.915  0.5080  0.4926  0.2920
  303DOPC     N41677   3.841   5.968   2.156  0.3286 -0.2667 -0.5343
  303DOPC   C1241678   3.712   6.048   2.139 -0.0339 -0.5607  0.5266
  303DOPC  H12A41679   3.706   6.119   2.221  0.2098  0.5465 -0.3811
  303DOPC  H12B41680   3.624   5.985   2.142 -0.2485 -0.2991 -0.1333
  303DOPC   C1341681   3.852   5.854   2.054 -0.0173  0.1388 -0.1928
  303DOPC  H13A41682   3.755   5.806   2.044  1.2478 -3.1059  1.6039
  303DOPC  H13B41683   3.881   5.890   1.957  1.9741  0.0292  0.3225
  303DOPC  H13C41684   3.924   5.777   2.078  1.6793  1.4391 -0.9583
  303DOPC   C1441685   3.843   5.895   2.287 -0.4564 -0.9277  0.0784
  303DOPC  H14A41686   3.777   5.810   2.288 -2.2183  0.3877  0.2186
  303DOPC  H14B41687   3.938   5.851   2.315  0.6175  1.6525  0.8764
  303DOPC  H14C41688   3.810   5.962   2.365 -1.1093  0.7400 -1.5572
  303DOPC   C1541689   3.950   6.065   2.144 -0.9820  0.2230  0.4017
  303DOPC  H15A41690   3.979   6.091   2.043  2.6161  2.4157  1.8378
  303DOPC  H15B41691   4.035   6.028   2.198 -0.5323  1.1212  0.3142
  303DOPC  H15C41692   3.929   6.165   2.177 -0.6233  0.2831  0.4492
  303DOPC   C1141693   3.702   6.135   2.012  0.0379 -0.3313  0.2589
  303DOPC  H11A41694   3.746   6.085   1.923  0.3175 -1.0954  0.8131
  303DOPC  H11B41695   3.595   6.147   1.988 -0.4812 -1.9623  1.5772
  303DOPC     P41696   3.731   6.364   2.131  0.2319  0.1393  0.4755
  303DOPC   O1341697   3.704   6.498   2.074  0.7241  0.1678  1.1605
  303DOPC   O1441698   3.836   6.360   2.238 -0.0782 -0.3911 -0.1043
  303DOPC   O1241699   3.766   6.261   2.026  0.0530 -0.2090 -0.0004
  303DOPC   O1141700   3.611   6.295   2.194  1.2206  0.5388 -0.9218
  303DOPC    C141701   3.476   6.348   2.180  0.5221 -0.0792  0.1644
  303DOPC    HA41702   3.406   6.262   2.180 -1.7695  1.6637 -1.3581
  303DOPC    HB41703   3.470   6.403   2.084  1.5357 -1.5248 -0.7769
  303DOPC    C241704   3.445   6.439   2.303  0.4690  0.2447 -0.0417
  303DOPC    HS41705   3.510   6.528   2.289  0.9661  0.0228  0.7726
  303DOPC   O2141706   3.460   6.373   2.430 -0.5236 -0.5721 -0.0569
  303DOPC   C2141707   3.501   6.453   2.526 -0.5633 -0.6134  0.0656
  303DOPC   O2241708   3.543   6.569   2.509  0.3676 -0.2101 -0.3088
  303DOPC   C2241709   3.481   6.386   2.664  0.3501  0.9176 -0.9863
  303DOPC   H2R41710   3.544   6.295   2.663 -1.0333 -0.0828  0.2362
  303DOPC   H2S41711   3.374   6.355   2.666  0.9469 -1.4057 -1.7552
  303DOPC    C341712   3.297   6.484   2.293  0.3863 -0.3257 -0.4112
  303DOPC    HX41713   3.234   6.393   2.285 -0.5024  0.2712 -0.3685
  303DOPC    HY41714   3.282   6.527   2.192 -2.5117  1.0172  0.4997
  303DOPC   O3141715   3.237   6.563   2.397 -0.0567 -0.8890 -0.4233
  303DOPC   C3141716   3.261   6.695   2.386 -0.0209 -0.0996  0.1615
  303DOPC   O3241717   3.331   6.747   2.302  0.0396  0.4362 -0.3173
  303DOPC   C3241718   3.188   6.766   2.495 -0.5304  0.0793 -0.3719
  303DOPC   H2X41719   3.183   6.876   2.479 -1.1758  0.1630  0.3243
  303DOPC   H2Y41720   3.087   6.720   2.506 -0.0314 -0.6493  1.5314
  303DOPC   C2341721   3.506   6.453   2.801  0.2688 -0.1993  1.0471
  303DOPC   H3R41722   3.451   6.546   2.828  2.2008  0.9504  1.2242
  303DOPC   H3S41723   3.612   6.483   2.788 -0.1659  0.6017 -1.2584
  303DOPC   C2441724   3.469   6.347   2.897  1.2360  0.3929 -0.9799
  303DOPC   H4R41725   3.500   6.241   2.886 -3.0695 -1.4832  2.1725
  303DOPC   H4S41726   3.358   6.338   2.886  1.2604 -0.1174 -0.8452
  303DOPC   C2541727   3.503   6.391   3.047  0.5906  0.1227 -0.4246
  303DOPC   H5R41728   3.613   6.402   3.054  0.9914 -2.0233 -2.3273
  303DOPC   H5S41729   3.476   6.302   3.109  2.1345 -1.6918 -2.2221
  303DOPC   C2641730   3.423   6.518   3.093 -0.7029 -0.2758 -0.1754
  303DOPC   H6R41731   3.314   6.501   3.082 -0.7567  0.4069 -0.7141
  303DOPC   H6S41732   3.459   6.600   3.028 -1.1634 -0.2869 -0.4539
  303DOPC   C2741733   3.457   6.558   3.240 -0.0065  1.0033 -0.3350
  303DOPC   H7R41734   3.419   6.661   3.260  0.6127  1.4198 -1.2249
  303DOPC   H7S41735   3.567   6.569   3.247  0.3301 -1.6773 -0.4516
  303DOPC   C2841736   3.406   6.451   3.343  0.0674  0.2754  0.5635
  303DOPC   H8R41737   3.456   6.356   3.314 -1.6937 -0.2973 -0.7195
  303DOPC   H8S41738   3.296   6.437   3.338 -0.0294  0.8157  1.0113
  303DOPC   C2941739   3.425   6.487   3.483  0.4406  0.1828  0.1149
  303DOPC   H9R41740   3.490   6.574   3.501 -1.4665  1.7126 -0.0904
  303DOPC  C21041741   3.366   6.424   3.586 -0.0311 -0.1607  0.1710
  303DOPC  H10R41742   3.374   6.461   3.689 -0.4949 -0.6103  0.3775
  303DOPC  C21141743   3.274   6.309   3.580  0.9233 -0.0734 -0.7179
  303DOPC  H11R41744   3.308   6.225   3.645  1.7062  0.7316 -0.0674
  303DOPC  H11S41745   3.268   6.270   3.476 -0.1831  2.2674 -1.6077
  303DOPC  C21241746   3.128   6.343   3.618  0.2397 -0.0432 -0.6742
  303DOPC  H12R41747   3.087   6.403   3.534 -0.3294 -1.7765 -1.7121
  303DOPC  H12S41748   3.133   6.410   3.706 -0.0478 -2.8814  1.6594
  303DOPC  C21341749   3.035   6.224   3.643 -0.5830  0.3342  0.2062
  303DOPC  H13R41750   3.078   6.161   3.724  0.6609  0.5245 -0.2795
  303DOPC  H13S41751   3.021   6.158   3.555 -1.3669 -3.4510  2.9409
  303DOPC  C21441752   2.896   6.252   3.703  0.3213  0.4180 -0.5774
  303DOPC  H14R41753   2.900   6.335   3.776 -1.8560  0.1850 -0.1379
  303DOPC  H14S41754   2.868   6.158   3.757 -2.5804  0.7990 -1.2495
  303DOPC  C21541755   2.780   6.279   3.601 -0.3429  0.2509  0.8435
  303DOPC  H15R41756   2.781   6.201   3.523  1.1421  0.5474  0.5446
  303DOPC  H15S41757   2.820   6.361   3.538 -1.0203  0.3040  0.4769
  303DOPC  C21641758   2.639   6.300   3.664 -0.2679  0.7056 -0.0797
  303DOPC  H16R41759   2.568   6.362   3.605  0.1502  2.6670  1.3447
  303DOPC  H16S41760   2.666   6.361   3.753  1.0722  0.2618 -0.1485
  303DOPC  C21741761   2.570   6.172   3.718  0.1053  0.3784  0.0030
  303DOPC  H17R41762   2.478   6.207   3.769  0.1512  2.3102 -1.1497
  303DOPC  H17S41763   2.637   6.132   3.797 -1.2208  0.0219  0.9803
  303DOPC  C21841764   2.539   6.058   3.620  0.1304 -0.3804 -0.8202
  303DOPC  H18R41765   2.507   6.091   3.520 -1.1508 -0.8219 -0.5769
  303DOPC  H18S41766   2.468   5.982   3.660  1.4291  0.8473  4.7487
  303DOPC  H18T41767   2.632   5.996   3.616 -0.6835 -1.6019 -1.3407
  303DOPC   C3341768   3.265   6.751   2.630  0.1246  0.2588 -1.2914
  303DOPC   H3X41769   3.375   6.765   2.621  0.2416 -0.3025 -0.7866
  303DOPC   H3Y41770   3.256   6.645   2.661  3.4737  0.4711  0.8364
  303DOPC   C3441771   3.212   6.846   2.734  0.0177  0.7898 -0.2060
  303DOPC   H4X41772   3.176   6.937   2.681 -2.2638  0.9161  1.4057
  303DOPC   H4Y41773   3.303   6.869   2.793  0.6261 -0.5190 -0.5858
  303DOPC   C3541774   3.098   6.786   2.815  0.1628 -1.0339  0.1427
  303DOPC   H5X41775   3.120   6.678   2.828 -0.4054 -1.1609  0.0380
  303DOPC   H5Y41776   3.014   6.788   2.743  1.2821 -4.7745 -1.4877
  303DOPC   C3641777   3.069   6.856   2.948 -0.0753  0.2848  0.5833
  303DOPC   H6X41778   3.105   6.961   2.943 -0.9651  0.5408 -1.9581
  303DOPC   H6Y41779   2.960   6.876   2.961  0.1078  1.6766  0.1760
  303DOPC   C3741780   3.126   6.768   3.062  0.3913 -0.5298  1.2395
  303DOPC   H7X41781   3.077   6.668   3.056  0.7335 -0.8383  3.1715
  303DOPC   H7Y41782   3.235   6.755   3.040 -0.1932 -0.3235 -2.3904
  303DOPC   C3841783   3.100   6.833   3.194  0.5916  0.1192 -0.3233
  303DOPC   H8X41784   2.993   6.858   3.212  0.9835 -0.3590  3.6290
  303DOPC   H8Y41785   3.165   6.921   3.215 -0.2703  0.7000 -0.0181
  303DOPC   C3941786   3.120   6.740   3.311  0.1448  0.2279 -0.4822
  303DOPC   H9X41787   3.208   6.677   3.294  0.9000  0.6359  1.5670
  303DOPC  C31041788   3.041   6.712   3.417  0.2844  0.0294  0.7621
  303DOPC  H10X41789   3.088   6.645   3.490  1.3884 -0.8914 -0.7407
  303DOPC  C31141790   2.902   6.753   3.445 -0.4642 -0.3907  0.5534
  303DOPC  H11X41791   2.830   6.670   3.429 -0.1084 -0.9407  1.7720
  303DOPC  H11Y41792   2.868   6.831   3.372  0.4926  1.4165  1.9524
  303DOPC  C31241793   2.877   6.791   3.592  0.2313 -0.3873 -0.7438
  303DOPC  H12X41794   2.770   6.819   3.600  0.4759  0.5144 -0.4206
  303DOPC  H12Y41795   2.943   6.874   3.626  0.6983 -1.3405  0.7798
  303DOPC  C31341796   2.892   6.671   3.684 -0.2573  0.1183  0.1237
  303DOPC  H13X41797   2.821   6.591   3.654 -0.0596  0.5835 -1.6759
  303DOPC  H13Y41798   2.987   6.615   3.673 -0.5541 -0.5106  0.6919
  303DOPC  C31441799   2.875   6.714   3.830 -0.5277 -0.4943  0.1907
  303DOPC  H14X41800   2.962   6.784   3.837 -0.0119 -0.8800 -1.8115
  303DOPC  H14Y41801   2.785   6.776   3.849  0.2592  0.5521  0.6512
  303DOPC  C31541802   2.901   6.609   3.938 -0.0674 -0.6276 -0.3028
  303DOPC  H15X41803   2.999   6.559   3.927 -0.6771 -1.8884 -0.2564
  303DOPC  H15Y41804   2.824   6.530   3.919 -0.8943  0.5566 -2.2349
  303DOPC  C31641805   2.883   6.659   4.081  0.1712 -0.3229 -0.0300
  303DOPC  H16X41806   2.944   6.750   4.097 -1.5860  1.0067 -0.6154
  303DOPC  H16Y41807   2.774   6.679   4.088  0.0264 -1.0266 -0.2254
  303DOPC  C31741808   2.914   6.551   4.186 -0.0613 -0.2372  0.0123
  303DOPC  H17X41809   2.869   6.454   4.157 -0.1449  0.2698 -1.6743
  303DOPC  H17Y41810   3.023   6.541   4.169  0.1068  0.3057  0.7446
  303DOPC  C31841811   2.869   6.580   4.329 -0.0069 -0.1360  0.5780
  303DOPC  H18X41812   2.900   6.502   4.401  1.6732  0.1088  0.1661
  303DOPC  H18Y41813   2.910   6.676   4.366  0.6556  0.1680 -0.8771
  303DOPC  H18Z41814   2.758   6.588   4.328  0.1056  1.7095  0.7521
  304DOPC     N41815   8.813   1.067   2.461  0.0368  0.0941 -0.2827
  304DOPC   C1241816   8.953   1.138   2.435  0.1583  0.0512  0.4065
  304DOPC  H12A41817   9.029   1.117   2.509  0.1349  1.0244  0.7317
  304DOPC  H12B41818   8.938   1.244   2.452  1.7610  0.3653  0.0700
  304DOPC   C1341819   8.838   0.916   2.459  0.0470 -0.3577  0.0528
  304DOPC  H13A41820   8.742   0.865   2.468  0.0432 -0.5380 -0.9890
  304DOPC  H13B41821   8.881   0.886   2.365 -3.8571 -3.6161 -1.0297
  304DOPC  H13C41822   8.898   0.896   2.547  1.6815  0.6131 -0.8195
  304DOPC   C1441823   8.726   1.104   2.349 -0.0317  0.1365  0.2055
  304DOPC  H14A41824   8.761   1.074   2.251 -1.4148  2.1731 -0.9695
  304DOPC  H14B41825   8.625   1.066   2.357  0.4653 -2.3488 -3.1805
  304DOPC  H14C41826   8.726   1.212   2.351  2.1251  0.1959  2.5692
  304DOPC   C1541827   8.760   1.114   2.591 -0.0867  0.1846  0.3665
  304DOPC  H15A41828   8.838   1.116   2.666  1.9245 -1.5268 -1.5480
  304DOPC  H15B41829   8.680   1.051   2.627 -0.3802  0.2709 -0.1223
  304DOPC  H15C41830   8.729   1.218   2.583  0.6707  0.5074  1.3635
  304DOPC   C1141831   9.021   1.107   2.293 -0.1155  0.0658  0.0778
  304DOPC  H11A41832   8.960   1.158   2.215  1.3579  1.2952 -0.3525
  304DOPC  H11B41833   9.120   1.159   2.301 -1.4138  2.5156  1.5692
  304DOPC     P41834   9.142   0.920   2.160 -0.0747 -0.1746 -0.0277
  304DOPC   O1341835   9.156   1.011   2.044  0.2571  0.6967 -0.3055
  304DOPC   O1441836   9.103   0.786   2.114  0.0086  0.6276 -0.0044
  304DOPC   O1241837   9.036   0.969   2.267  0.5257  0.0976  0.7222
  304DOPC   O1141838   9.282   0.908   2.244  0.2475  0.2762 -0.0575
  304DOPC    C141839   9.303   0.838   2.366  0.0095  0.3412  0.7010
  304DOPC    HA41840   9.413   0.825   2.373  0.0798 -1.7213 -2.2741
  304DOPC    HB41841   9.248   0.741   2.368  0.9199 -0.2444 -0.6838
  304DOPC    C241842   9.273   0.923   2.497 -0.5960  0.1467  0.0379
  304DOPC    HS41843   9.163   0.934   2.493 -0.8223 -1.6057  0.3967
  304DOPC   O2141844   9.343   1.049   2.484 -0.5545 -0.4154  0.7134
  304DOPC   C2141845   9.294   1.154   2.560 -0.0769  0.8505 -0.3356
  304DOPC   O2241846   9.187   1.141   2.613 -0.3273  0.1141 -0.1759
  304DOPC   C2241847   9.389   1.276   2.559  0.6496 -0.8521  0.3660
  304DOPC   H2R41848   9.335   1.370   2.580  0.9888 -1.0674  2.3928
  304DOPC   H2S41849   9.434   1.286   2.458 -0.1501 -1.4635 -0.0510
  304DOPC    C341850   9.317   0.839   2.620 -0.1800 -0.3200  0.2819
  304DOPC    HX41851   9.421   0.819   2.585 -0.6523  0.9442 -2.0918
  304DOPC    HY41852   9.278   0.735   2.613  0.9652 -0.6512 -3.5042
  304DOPC   O3141853   9.316   0.910   2.750  0.0714 -0.4128 -0.3002
  304DOPC   C3141854   9.197   0.909   2.808  0.6786 -0.3940  0.0806
  304DOPC   O3241855   9.092   0.866   2.765 -0.2603 -0.3348  0.0166
  304DOPC   C3241856   9.207   0.978   2.940 -0.1688  0.5936  0.4587
  304DOPC   H2X41857   9.278   1.063   2.934 -1.2745  1.6718  1.7735
  304DOPC   H2Y41858   9.106   1.025   2.950 -0.1719  0.9121 -0.9063
  304DOPC   C2341859   9.513   1.249   2.645 -0.2699 -0.9257  0.0889
  304DOPC   H3R41860   9.585   1.331   2.625  1.7511 -2.3642  1.0949
  304DOPC   H3S41861   9.564   1.152   2.628  0.9862 -0.0694 -1.2980
  304DOPC   C2441862   9.479   1.263   2.795  0.1519 -0.2366 -0.0418
  304DOPC   H4R41863   9.559   1.225   2.863 -0.4405 -2.3574 -0.4444
  304DOPC   H4S41864   9.401   1.190   2.826 -0.2751 -0.3128 -1.2462
  304DOPC   C2541865   9.425   1.396   2.842  0.2536  0.5547  0.0357
  304DOPC   H5R41866   9.336   1.432   2.785 -0.4499  0.1302  0.8461
  304DOPC   H5S41867   9.509   1.464   2.816  1.6431 -0.5999  1.3446
  304DOPC   C2641868   9.390   1.388   2.986  0.3390  0.1791  0.3142
  304DOPC   H6R41869   9.484   1.368   3.041  0.0280  1.3324  1.3019
  304DOPC   H6S41870   9.308   1.316   3.005  0.9247 -0.4259  0.5869
  304DOPC   C2741871   9.354   1.529   3.046 -0.2874 -0.3444 -0.3962
  304DOPC   H7R41872   9.253   1.558   3.013 -0.5779 -0.3810  0.4337
  304DOPC   H7S41873   9.421   1.605   3.000  0.0686 -1.5038 -1.8506
  304DOPC   C2841874   9.351   1.539   3.199 -0.3249 -0.1185  0.1412
  304DOPC   H8R41875   9.322   1.644   3.219 -1.6749 -0.3224 -0.5983
  304DOPC   H8S41876   9.454   1.522   3.236  0.8650  1.0682 -2.3710
  304DOPC   C2941877   9.260   1.445   3.265  0.8352 -0.0656 -0.0094
  304DOPC   H9R41878   9.161   1.435   3.218  0.3364  0.9022  0.7870
  304DOPC  C21041879   9.263   1.408   3.394 -0.5302 -0.1753  0.0768
  304DOPC  H10R41880   9.204   1.319   3.422  0.1965 -1.2636 -1.7137
  304DOPC  C21141881   9.370   1.447   3.492  0.6026 -0.2835 -0.3422
  304DOPC  H11R41882   9.350   1.524   3.570 -0.0615 -1.5246  0.7592
  304DOPC  H11S41883   9.467   1.475   3.445  0.0872 -0.2572 -1.4226
  304DOPC  C21241884   9.409   1.324   3.580 -0.3767 -0.0352  0.4086
  304DOPC  H12R41885   9.501   1.349   3.637 -0.2725 -0.0934  0.2685
  304DOPC  H12S41886   9.432   1.239   3.511 -0.4040 -1.0222  1.5850
  304DOPC  C21341887   9.301   1.279   3.678  0.0496 -0.3457 -0.3660
  304DOPC  H13R41888   9.203   1.250   3.633  0.1138  1.7659 -2.0694
  304DOPC  H13S41889   9.283   1.370   3.739 -2.1808  1.0546 -2.8507
  304DOPC  C21441890   9.341   1.161   3.763  0.7115  0.5654  0.0907
  304DOPC  H14R41891   9.257   1.145   3.834  1.3989  0.5005  0.9153
  304DOPC  H14S41892   9.438   1.180   3.814  1.3438  2.3789 -1.6589
  304DOPC  C21541893   9.370   1.033   3.677  0.1856  0.3063 -0.3707
  304DOPC  H15R41894   9.469   1.030   3.627  0.2976  0.3121 -0.1525
  304DOPC  H15S41895   9.281   1.021   3.611 -0.7376  1.1153  0.6749
  304DOPC  C21641896   9.367   0.912   3.763  0.5695 -0.1902 -0.1839
  304DOPC  H16R41897   9.258   0.891   3.777  0.2627  1.2631 -0.1877
  304DOPC  H16S41898   9.399   0.944   3.865 -1.5227  1.7657 -0.0358
  304DOPC  C21741899   9.436   0.783   3.709 -0.1157 -0.5482  0.9333
  304DOPC  H17R41900   9.546   0.796   3.699 -0.1562 -1.2452 -0.6021
  304DOPC  H17S41901   9.396   0.766   3.607 -0.2642  1.5397  0.5968
  304DOPC  C21841902   9.384   0.661   3.785 -0.2981 -0.1309  0.5620
  304DOPC  H18R41903   9.437   0.567   3.759 -0.4933 -0.0774 -0.0314
  304DOPC  H18S41904   9.277   0.637   3.772 -0.5890  1.8509 -1.1419
  304DOPC  H18T41905   9.408   0.678   3.892  0.3872 -0.3980  0.4568
  304DOPC   C3341906   9.223   0.887   3.061 -0.3041 -0.5376  0.0098
  304DOPC   H3X41907   9.315   0.827   3.045  0.4788  0.4248  0.7194
  304DOPC   H3Y41908   9.138   0.817   3.064 -2.1708  1.5948 -0.5111
  304DOPC   C3441909   9.241   0.977   3.186  0.2458 -0.2024  0.6424
  304DOPC   H4X41910   9.214   0.932   3.284 -0.4046  0.1249  0.6218
  304DOPC   H4Y41911   9.176   1.066   3.175  1.0378  0.0877 -3.0429
  304DOPC   C3541912   9.381   1.032   3.193 -0.1668  0.3291  0.8946
  304DOPC   H5X41913   9.393   1.120   3.260  1.0713  0.5299  0.4295
  304DOPC   H5Y41914   9.412   1.058   3.090 -2.8371 -0.6818 -0.2692
  304DOPC   C3641915   9.480   0.939   3.260  0.9168 -0.3586 -0.5024
  304DOPC   H6X41916   9.437   0.926   3.361 -2.5352  3.4359 -1.2019
  304DOPC   H6Y41917   9.468   0.842   3.207  0.6500 -0.1413 -0.8436
  304DOPC   C3741918   9.625   0.987   3.253 -0.4752  0.4194 -0.2776
  304DOPC   H7X41919   9.659   0.995   3.148  1.9620 -1.0981  0.3279
  304DOPC   H7Y41920   9.639   1.092   3.288  1.6185  0.4151 -0.9712
  304DOPC   C3841921   9.716   0.895   3.341 -0.3255  0.2151  0.2001
  304DOPC   H8X41922   9.668   0.896   3.441  1.7290  0.9951  1.2349
  304DOPC   H8Y41923   9.814   0.945   3.360  0.8026 -2.1567  0.9601
  304DOPC   C3941924   9.753   0.766   3.268 -0.7566 -0.0010 -0.6436
  304DOPC   H9X41925   9.772   0.768   3.159 -0.5224  0.1394 -0.6003
  304DOPC  C31041926   9.794   0.653   3.334 -0.0701 -0.1094  0.0040
  304DOPC  H10X41927   9.813   0.555   3.288  2.0256  0.0242  0.4699
  304DOPC  C31141928   9.778   0.638   3.485 -1.0139  0.0816  0.0553
  304DOPC  H11X41929   9.671   0.637   3.515 -0.7587 -1.5392  1.1044
  304DOPC  H11Y41930   9.821   0.724   3.540  0.7824 -0.1985 -0.8298
  304DOPC  C31241931   9.833   0.505   3.548 -0.1627 -0.3615  0.0858
  304DOPC  H12X41932   9.943   0.506   3.541  0.0203 -0.2555  2.1440
  304DOPC  H12Y41933   9.793   0.423   3.485 -0.4498  0.6796 -1.1176
  304DOPC  C31341934   9.791   0.489   3.695 -0.0383 -0.4209  0.6240
  304DOPC  H13X41935   9.807   0.588   3.744 -2.0130 -0.1280  0.7572
  304DOPC  H13Y41936   9.682   0.468   3.699 -0.4892  0.6488 -2.8404
  304DOPC  C31441937   9.876   0.385   3.767  0.1590  0.0993 -0.2050
  304DOPC  H14X41938   9.904   0.294   3.709  0.5983  0.1338 -0.0564
  304DOPC  H14Y41939   9.973   0.434   3.791  0.6487 -1.2192  0.6649
  304DOPC  C31541940   9.819   0.353   3.903  0.0822 -0.0794  0.1240
  304DOPC  H15X41941   9.767   0.436   3.955  0.8395  1.5019 -1.5306
  304DOPC  H15Y41942   9.912   0.316   3.952 -0.0432 -1.4902 -0.6468
  304DOPC  C31641943   9.721   0.232   3.887  0.3427  0.1755 -0.3502
  304DOPC  H16X41944   9.640   0.277   3.825  0.7926  2.6964  0.7308
  304DOPC  H16Y41945   9.770   0.151   3.831  1.0224  1.1786 -1.2504
  304DOPC  C31741946   9.662   0.182   4.020 -0.7047 -0.1219  0.8226
  304DOPC  H17X41947   9.579   0.109   4.009 -1.5478  0.9179  0.0879
  304DOPC  H17Y41948   9.735   0.110   4.063 -2.2674 -1.5161  1.2197
  304DOPC  C31841949   9.619   0.291   4.127  0.6582  0.5212 -0.0538
  304DOPC  H18X41950   9.709   0.350   4.155  0.0962  0.9840  0.8039
  304DOPC  H18Y41951   9.549   0.355   4.070 -0.1589 -0.6465 -0.3947
  304DOPC  H18Z41952   9.567   0.245   4.214 -0.6551  0.6448 -0.7473
  305DOPC     N41953   9.504   7.121   1.497  0.0942  0.2140  0.2236
  305DOPC   C1241954   9.571   7.127   1.631 -0.2767 -0.3352  0.0651
  305DOPC  H12A41955   9.633   7.215   1.626  1.1515 -1.3464 -2.2823
  305DOPC  H12B41956   9.634   7.040   1.647  0.8196  0.3758 -0.2609
  305DOPC   C1341957   9.417   7.233   1.473  0.0155 -0.8015 -0.3450
  305DOPC  H13A41958   9.351   7.219   1.389 -1.8230 -2.1704  1.2346
  305DOPC  H13B41959   9.349   7.267   1.549 -1.3267  2.2718 -2.7177
  305DOPC  H13C41960   9.477   7.319   1.449  1.4510 -1.2435  1.4726
  305DOPC   C1441961   9.416   6.999   1.484 -0.4123 -0.3818 -0.3928
  305DOPC  H14A41962   9.349   7.005   1.399 -0.3277 -2.2838 -0.6422
  305DOPC  H14B41963   9.486   6.919   1.466  0.1091  0.0957 -0.5426
  305DOPC  H14C41964   9.361   6.984   1.576  1.2228 -2.1649  0.3474
  305DOPC   C1541965   9.612   7.110   1.390  0.8248 -0.4327 -0.2034
  305DOPC  H15A41966   9.686   7.035   1.414  0.1620 -0.5690  1.6219
  305DOPC  H15B41967   9.657   7.207   1.378 -0.8917  0.5540  0.8204
  305DOPC  H15C41968   9.566   7.096   1.294 -3.2294  0.7952  1.3611
  305DOPC   C1141969   9.485   7.134   1.756  0.1027  0.4174 -0.2450
  305DOPC  H11A41970   9.418   7.047   1.767  1.4716 -0.6836 -0.4166
  305DOPC  H11B41971   9.557   7.133   1.842 -0.2717  0.4861  0.0719
  305DOPC     P41972   9.465   7.390   1.803 -0.0165 -0.1419 -0.5256
  305DOPC   O1341973   9.365   7.501   1.774  0.2435 -0.5456  0.3933
  305DOPC   O1441974   9.605   7.401   1.773 -0.0673 -0.1022  0.5677
  305DOPC   O1241975   9.409   7.250   1.750  0.6527  0.3185 -0.1245
  305DOPC   O1141976   9.463   7.366   1.962 -0.5706 -0.4142  0.5437
  305DOPC    C141977   9.364   7.280   2.013 -0.3810 -0.0716  0.1159
  305DOPC    HA41978   9.380   7.172   1.991  0.2331 -0.1532  0.9434
  305DOPC    HB41979   9.262   7.302   1.974 -1.5211 -1.7370  1.9829
  305DOPC    C241980   9.357   7.296   2.159 -0.1271 -0.4350 -0.8419
  305DOPC    HS41981   9.258   7.259   2.191 -0.2475 -0.3475 -1.1083
  305DOPC   O2141982   9.374   7.434   2.199 -0.2543 -0.3308 -0.1165
  305DOPC   C2141983   9.271   7.514   2.194  0.1087  0.1991  0.3445
  305DOPC   O2241984   9.163   7.479   2.151  0.3272 -0.1556 -0.0065
  305DOPC   C2241985   9.309   7.653   2.252  0.1825  0.4044 -0.2064
  305DOPC   H2R41986   9.248   7.729   2.199  0.4404  0.4014 -0.5161
  305DOPC   H2S41987   9.413   7.676   2.219  0.3058 -1.9773 -1.8043
  305DOPC    C341988   9.455   7.203   2.234  0.9908 -0.2695  0.8219
  305DOPC    HX41989   9.547   7.204   2.172  0.6473  0.6755  0.2981
  305DOPC    HY41990   9.425   7.097   2.226 -2.4122  0.6569 -0.5720
  305DOPC   O3141991   9.476   7.248   2.369  0.0254 -0.1064 -0.6238
  305DOPC   C3141992   9.381   7.196   2.462  0.8270 -0.1979 -0.3311
  305DOPC   O3241993   9.290   7.123   2.430  0.2327  0.9574  0.1941
  305DOPC   C3241994   9.409   7.244   2.604  0.7681 -0.5955  0.1996
  305DOPC   H2X41995   9.508   7.209   2.641  1.7390  0.7264 -1.0369
  305DOPC   H2Y41996   9.401   7.355   2.605 -0.1761 -0.6494  0.7493
  305DOPC   C2341997   9.278   7.652   2.404 -0.4078 -0.4246  0.4289
  305DOPC   H3R41998   9.350   7.596   2.469  1.6682  2.2626  0.6196
  305DOPC   H3S41999   9.178   7.607   2.423 -0.2048 -1.1532 -0.1476
  305DOPC   C2442000   9.290   7.790   2.461  0.2037 -0.9117  0.0127
  305DOPC   H4R42001   9.231   7.858   2.396  0.7085  0.5222  0.9968
  305DOPC   H4S42002   9.391   7.836   2.458 -0.5475  0.8026 -1.1159
  305DOPC   C2542003   9.233   7.788   2.604  0.5560  0.1316  0.4991
  305DOPC   H5R42004   9.298   7.717   2.659  1.9778  1.1756  0.2210
  305DOPC   H5S42005   9.129   7.751   2.600 -0.2046  2.1094  0.7666
  305DOPC   C2642006   9.224   7.920   2.674  0.0049  0.0204 -0.1237
  305DOPC   H6R42007   9.172   7.897   2.769  2.4500  0.4916  1.4159
  305DOPC   H6S42008   9.168   7.998   2.619  1.2749  1.7188  0.8986
  305DOPC   C2742009   9.365   7.975   2.702  0.5775  0.0124  0.3605
  305DOPC   H7R42010   9.411   8.035   2.620  2.9243  0.1944  1.7262
  305DOPC   H7S42011   9.431   7.888   2.723 -0.0889 -0.6070 -0.0810
  305DOPC   C2842012   9.364   8.071   2.825  0.1079  0.0404  0.1955
  305DOPC   H8R42013   9.470   8.086   2.856 -0.0484  0.3900  0.5530
  305DOPC   H8S42014   9.303   8.027   2.906  1.2040 -1.6509  0.1602
  305DOPC   C2942015   9.316   8.210   2.779  0.4496 -0.5465  0.1174
  305DOPC   H9R42016   9.396   8.269   2.731  1.4209  1.2912  3.5992
  305DOPC  C21042017   9.198   8.273   2.805  0.1880  0.2710  0.3962
  305DOPC  H10R42018   9.170   8.363   2.748  0.7986  1.2407  1.5855
  305DOPC  C21142019   9.088   8.227   2.893 -0.4659  0.1248 -0.4280
  305DOPC  H11R42020   9.071   8.126   2.848 -1.1848  0.8322 -1.8103
  305DOPC  H11S42021   8.996   8.283   2.868  1.3136  1.9805 -3.5008
  305DOPC  C21242022   9.112   8.222   3.040 -0.2916  0.0392 -0.0703
  305DOPC  H12R42023   9.207   8.166   3.056 -0.2178 -0.2690 -1.4364
  305DOPC  H12S42024   9.032   8.169   3.096  0.4818 -0.0717  0.9653
  305DOPC  C21342025   9.142   8.372   3.095  0.5781  0.4053  0.6885
  305DOPC  H13R42026   9.050   8.433   3.111  0.8101  1.0449 -0.3396
  305DOPC  H13S42027   9.212   8.427   3.029  1.5698 -0.0474  1.3433
  305DOPC  C21442028   9.214   8.357   3.233 -0.5378  0.7859 -0.1356
  305DOPC  H14R42029   9.256   8.454   3.269 -0.0627  1.1592 -1.6184
  305DOPC  H14S42030   9.299   8.299   3.191 -1.9590 -2.5053  1.1742
  305DOPC  C21542031   9.128   8.288   3.341 -0.2796  0.0578  0.1247
  305DOPC  H15R42032   9.082   8.195   3.300  2.9438 -1.4377 -0.4401
  305DOPC  H15S42033   9.046   8.353   3.378 -0.2559 -0.1095  0.4666
  305DOPC  C21642034   9.201   8.237   3.468 -0.1963 -0.3201 -0.6371
  305DOPC  H16R42035   9.273   8.314   3.502 -0.2119 -0.1983 -0.8768
  305DOPC  H16S42036   9.277   8.161   3.439  0.2886  0.1832 -0.7021
  305DOPC  C21742037   9.108   8.185   3.577  0.6677 -0.1841  0.3091
  305DOPC  H17R42038   9.018   8.252   3.582  0.0564 -0.8486 -1.2662
  305DOPC  H17S42039   9.155   8.194   3.677 -0.5250 -4.3881  1.4583
  305DOPC  C21842040   9.059   8.033   3.560 -0.6931  0.5813  0.2493
  305DOPC  H18R42041   9.141   7.965   3.594 -1.0126 -0.0569 -0.2399
  305DOPC  H18S42042   9.063   8.020   3.450  1.4047  1.9135  0.0937
  305DOPC  H18T42043   8.964   8.015   3.614 -1.3204  2.7933 -0.0150
  305DOPC   C3342044   9.303   7.184   2.696 -0.2515  0.3879 -0.2652
  305DOPC   H3X42045   9.306   7.074   2.679  0.9506 -0.0150  2.0690
  305DOPC   H3Y42046   9.199   7.211   2.670 -0.5230 -0.1096  0.2747
  305DOPC   C3442047   9.326   7.198   2.846 -0.4226  0.2681  0.1629
  305DOPC   H4X42048   9.429   7.162   2.870 -0.7345  0.0537  1.2560
  305DOPC   H4Y42049   9.253   7.141   2.907 -1.4391  0.4737 -0.8353
  305DOPC   C3542050   9.332   7.338   2.903  0.1816 -0.5865 -0.3061
  305DOPC   H5X42051   9.392   7.401   2.834 -1.6230  1.0012 -0.5192
  305DOPC   H5Y42052   9.376   7.334   3.005  1.8021  2.9135 -0.7234
  305DOPC   C3642053   9.196   7.412   2.913  0.0667 -0.8122 -0.2415
  305DOPC   H6X42054   9.140   7.381   2.822  0.1273 -0.5262 -0.3769
  305DOPC   H6Y42055   9.142   7.380   3.004 -0.6866  1.4950  0.1837
  305DOPC   C3742056   9.220   7.560   2.928 -0.1544 -0.2194 -0.0031
  305DOPC   H7X42057   9.287   7.579   3.015  0.1044 -0.3918 -0.1658
  305DOPC   H7Y42058   9.268   7.611   2.842  0.6403  2.4720  1.9112
  305DOPC   C3842059   9.082   7.622   2.943 -0.2138 -0.1452  0.8449
  305DOPC   H8X42060   9.026   7.554   3.011 -1.5397 -1.3801 -1.3614
  305DOPC   H8Y42061   9.041   7.596   2.843  2.9772 -1.4312 -0.2708
  305DOPC   C3942062   9.060   7.769   2.975 -0.5063 -0.6274 -0.4156
  305DOPC   H9X42063   8.973   7.816   2.928 -0.8016  0.6493  1.3064
  305DOPC  C31042064   9.124   7.846   3.062  0.2960  0.2992  0.1602
  305DOPC  H10X42065   9.085   7.949   3.070 -1.8454 -0.5403  1.4142
  305DOPC  C31142066   9.237   7.812   3.163  0.5743  0.2154  0.4240
  305DOPC  H11X42067   9.294   7.907   3.176 -0.6996  1.5804 -2.8397
  305DOPC  H11Y42068   9.309   7.744   3.113 -1.1133 -1.0009 -0.4441
  305DOPC  C31242069   9.201   7.753   3.293  0.2501 -0.2899 -0.2765
  305DOPC  H12X42070   9.151   7.655   3.282 -0.1308  0.0362 -1.5532
  305DOPC  H12Y42071   9.127   7.826   3.333  1.5137  1.1746 -0.4923
  305DOPC  C31342072   9.315   7.734   3.401  0.2402 -0.1237  0.5365
  305DOPC  H13X42073   9.401   7.681   3.356  0.8303  1.9935 -0.9698
  305DOPC  H13Y42074   9.355   7.837   3.416 -0.2075  0.3243 -1.1092
  305DOPC  C31442075   9.265   7.662   3.526 -0.2222 -0.0141 -0.6434
  305DOPC  H14X42076   9.172   7.708   3.567  1.8082  2.8420  1.1738
  305DOPC  H14Y42077   9.250   7.554   3.506 -0.9746  0.1237 -0.8577
  305DOPC  C31542078   9.375   7.660   3.631  0.4419 -0.0749 -0.2518
  305DOPC  H15X42079   9.406   7.755   3.678  0.1544 -0.1455  0.0828
  305DOPC  H15Y42080   9.471   7.626   3.586  0.2474  2.4737 -2.9081
  305DOPC  C31642081   9.344   7.573   3.751 -0.2308 -0.3208 -0.5045
  305DOPC  H16X42082   9.257   7.606   3.812  0.3386 -1.6983  1.1377
  305DOPC  H16Y42083   9.312   7.473   3.712 -0.2276  0.2205 -1.9634
  305DOPC  C31742084   9.473   7.570   3.833  0.2317 -0.3177 -0.1698
  305DOPC  H17X42085   9.561   7.524   3.783 -0.8389 -2.2131 -0.4146
  305DOPC  H17Y42086   9.509   7.670   3.862  0.0436 -0.3186  0.0690
  305DOPC  C31842087   9.460   7.490   3.964  0.7739 -0.2450  0.1460
  305DOPC  H18X42088   9.362   7.520   4.006  0.6891 -1.4928  0.8777
  305DOPC  H18Y42089   9.440   7.381   3.949  0.7791 -0.2132 -0.1090
  305DOPC  H18Z42090   9.535   7.502   4.045 -0.5252 -0.6857  1.4598
  306DOPC     N42091   3.105   8.110   1.587  0.8756  0.0887 -0.4458
  306DOPC   C1242092   3.035   8.242   1.600  0.6711 -0.4127  0.2139
  306DOPC  H12A42093   2.997   8.271   1.503  0.0174  1.4054  0.9703
  306DOPC  H12B42094   3.119   8.306   1.624  0.0137  1.0548 -1.2044
  306DOPC   C1342095   3.143   8.056   1.720  0.2909  0.1759  0.8258
  306DOPC  H13A42096   3.176   7.956   1.698  1.1011  1.0093 -2.3332
  306DOPC  H13B42097   3.232   8.109   1.752  0.6710 -0.2675  0.5136
  306DOPC  H13C42098   3.074   8.058   1.803 -0.5336 -0.2118  0.1685
  306DOPC   C1442099   3.230   8.129   1.510 -0.0164 -0.5326 -0.7217
  306DOPC  H14A42100   3.283   8.037   1.495 -0.1674 -0.8832  0.7581
  306DOPC  H14B42101   3.209   8.161   1.409  0.7516  0.9320 -0.4526
  306DOPC  H14C42102   3.300   8.199   1.555 -0.1932  0.0354 -1.3134
  306DOPC   C1542103   3.021   8.013   1.514  0.2722  0.2787  0.0896
  306DOPC  H15A42104   3.023   8.021   1.406 -1.3130  0.7578  0.0725
  306DOPC  H15B42105   2.916   8.030   1.532 -0.0220  1.7669 -2.5242
  306DOPC  H15C42106   3.053   7.918   1.554 -0.7536  0.6426  1.8984
  306DOPC   C1142107   2.931   8.253   1.702 -0.1871  0.7985  0.0500
  306DOPC  H11A42108   2.946   8.193   1.795 -0.0946 -0.0772 -0.5135
  306DOPC  H11B42109   2.944   8.356   1.741  4.4446  0.0525  1.0779
  306DOPC     P42110   2.675   8.188   1.725  0.0506  0.2365  0.4937
  306DOPC   O1342111   2.583   8.099   1.650  0.0620 -0.4101  0.2274
  306DOPC   O1442112   2.622   8.315   1.771 -0.4112 -0.0547 -0.2283
  306DOPC   O1242113   2.807   8.216   1.640 -0.3517 -0.4264  0.6394
  306DOPC   O1142114   2.733   8.117   1.847  0.1045 -0.2802 -0.4183
  306DOPC    C142115   2.755   8.157   1.980  0.3424 -0.0902 -0.3546
  306DOPC    HA42116   2.722   8.262   1.993  0.4662  0.1370 -1.7112
  306DOPC    HB42117   2.865   8.169   1.993  0.0849  2.1551  0.0799
  306DOPC    C242118   2.689   8.064   2.099 -0.2041 -0.9997  0.1862
  306DOPC    HS42119   2.680   8.131   2.186 -0.5425  1.2550 -1.5009
  306DOPC   O2142120   2.763   7.946   2.129  0.3608  0.2715 -0.0867
  306DOPC   C2142121   2.881   7.976   2.178 -0.2228 -0.3527  0.2840
  306DOPC   O2242122   2.912   8.089   2.206  0.0165 -0.7714  0.5803
  306DOPC   C2242123   2.971   7.857   2.206 -0.3074 -0.0436 -0.0017
  306DOPC   H2R42124   2.987   7.809   2.107  1.6432 -0.2936  0.3844
  306DOPC   H2S42125   2.919   7.782   2.268  0.8532 -0.0363  1.0214
  306DOPC    C342126   2.545   8.016   2.051  0.0562  0.0600  0.0150
  306DOPC    HX42127   2.558   7.976   1.948  3.6707  1.8008 -0.3725
  306DOPC    HY42128   2.492   8.112   2.035  0.5233  0.3412  0.1345
  306DOPC   O3142129   2.463   7.928   2.134  0.5668  0.5237 -0.3052
  306DOPC   C3142130   2.435   7.962   2.253 -0.0351  0.8406  0.7978
  306DOPC   O3242131   2.479   8.056   2.310 -0.1471  0.2570 -0.5627
  306DOPC   C3242132   2.325   7.866   2.309 -0.0853  0.2547  0.0661
  306DOPC   H2X42133   2.231   7.914   2.274  0.5291  1.2980 -0.1927
  306DOPC   H2Y42134   2.329   7.763   2.268 -1.6220  0.4868 -0.7562
  306DOPC   C2342135   3.107   7.889   2.267 -0.4714 -0.3042 -0.3741
  306DOPC   H3R42136   3.163   7.972   2.217  3.7531 -2.0907  0.9198
  306DOPC   H3S42137   3.167   7.801   2.235  1.6068  1.0733 -0.4853
  306DOPC   C2442138   3.105   7.894   2.418 -0.5216 -0.0213  0.1435
  306DOPC   H4R42139   3.058   7.801   2.457 -0.0575 -0.5884 -0.6355
  306DOPC   H4S42140   3.047   7.982   2.454 -0.6953 -1.4865  3.9200
  306DOPC   C2542141   3.254   7.903   2.479  0.8052  0.6593  0.4156
  306DOPC   H5R42142   3.306   7.988   2.428  0.9829 -0.0883 -0.6794
  306DOPC   H5S42143   3.305   7.809   2.450  1.3777  1.4481 -1.3385
  306DOPC   C2642144   3.248   7.914   2.630 -0.3598 -0.3414 -0.2874
  306DOPC   H6R42145   3.343   7.881   2.677 -1.4365 -2.6442  0.4254
  306DOPC   H6S42146   3.180   7.836   2.671 -0.1755  0.1274  0.9601
  306DOPC   C2742147   3.184   8.043   2.676 -0.1900  0.3717  0.1158
  306DOPC   H7R42148   3.105   8.090   2.613  0.3250  0.8210 -0.2007
  306DOPC   H7S42149   3.259   8.124   2.667 -1.7311  1.9765  0.9889
  306DOPC   C2842150   3.147   8.045   2.823  0.1223 -0.2331 -0.2381
  306DOPC   H8R42151   3.078   7.958   2.820  0.0262 -0.1477 -0.5425
  306DOPC   H8S42152   3.094   8.140   2.842  1.7826  0.4627  1.1868
  306DOPC   C2942153   3.262   8.025   2.921  0.3598 -0.5354  0.0943
  306DOPC   H9R42154   3.340   7.964   2.873  0.8849  0.1349  0.0854
  306DOPC  C21042155   3.263   8.058   3.052 -0.0478 -0.2664 -0.4657
  306DOPC  H10R42156   3.341   8.027   3.122  0.1206  1.6097  0.2119
  306DOPC  C21142157   3.144   8.124   3.115 -0.3727  0.6789 -0.0509
  306DOPC  H11R42158   3.054   8.075   3.072  0.3593 -0.7626 -0.0040
  306DOPC  H11S42159   3.157   8.232   3.093  1.0668  0.3977 -0.6784
  306DOPC  C21242160   3.133   8.108   3.266  0.6397  0.4996  0.0521
  306DOPC  H12R42161   3.210   8.166   3.322  0.4911  0.5835  0.1701
  306DOPC  H12S42162   3.141   7.999   3.288 -4.4178 -0.8602 -3.0661
  306DOPC  C21342163   2.997   8.157   3.320 -0.0179 -0.6643 -0.1861
  306DOPC  H13R42164   2.921   8.087   3.279 -1.0826  0.8985 -0.9783
  306DOPC  H13S42165   2.974   8.260   3.286  3.5554  0.3470  0.0508
  306DOPC  C21442166   3.001   8.163   3.474  0.4594 -0.3741 -0.0796
  306DOPC  H14R42167   3.089   8.221   3.508 -1.4758  2.7294 -0.0106
  306DOPC  H14S42168   3.029   8.061   3.509 -0.6752 -0.3843  0.8508
  306DOPC  C21542169   2.862   8.208   3.533  0.0606 -0.0722 -0.6364
  306DOPC  H15R42170   2.783   8.136   3.501 -0.6803  1.4184 -2.3476
  306DOPC  H15S42171   2.823   8.299   3.481  0.2843  0.8620  0.7876
  306DOPC  C21642172   2.850   8.224   3.688 -0.1706  0.1230 -0.1129
  306DOPC  H16R42173   2.742   8.233   3.712  0.5806  1.7335  3.3113
  306DOPC  H16S42174   2.900   8.316   3.726 -1.5076  0.4574  0.9133
  306DOPC  C21742175   2.911   8.106   3.771  0.6778 -0.6386 -0.0797
  306DOPC  H17R42176   3.021   8.123   3.779  0.4009  1.4650 -0.0961
  306DOPC  H17S42177   2.888   8.004   3.735  1.6366 -1.5090  1.6503
  306DOPC  C21842178   2.845   8.104   3.913  0.1468 -0.5303 -0.0523
  306DOPC  H18R42179   2.904   8.032   3.974  1.0341  0.3712  0.1748
  306DOPC  H18S42180   2.742   8.062   3.912  0.3040 -0.9704  1.1524
  306DOPC  H18T42181   2.845   8.203   3.963  1.5504 -0.1108 -0.8330
  306DOPC   C3342182   2.321   7.864   2.462  0.2585  0.5694  1.1859
  306DOPC   H3X42183   2.427   7.854   2.492  1.5627 -0.3343 -3.0604
  306DOPC   H3Y42184   2.271   7.775   2.506  1.8816 -0.1020  1.7320
  306DOPC   C3442185   2.259   7.989   2.524 -0.4152  0.2037 -0.4329
  306DOPC   H4X42186   2.160   8.018   2.484 -0.4758  1.4090  0.5169
  306DOPC   H4Y42187   2.319   8.083   2.517 -2.0278  1.4388  1.3954
  306DOPC   C3542188   2.235   7.968   2.675  0.6280 -0.3141  0.2727
  306DOPC   H5X42189   2.312   7.910   2.729 -0.0423  0.4704  2.1679
  306DOPC   H5Y42190   2.148   7.900   2.667 -0.0467  0.3383  1.6829
  306DOPC   C3642191   2.212   8.103   2.736 -0.2223  0.1184 -0.0069
  306DOPC   H6X42192   2.311   8.148   2.762  1.1009 -0.4734 -3.3704
  306DOPC   H6Y42193   2.171   8.169   2.656 -1.7836 -0.2356  0.4800
  306DOPC   C3742194   2.109   8.114   2.845 -0.3723  0.5578 -0.3553
  306DOPC   H7X42195   2.110   8.219   2.879 -0.7004  1.0999 -1.9239
  306DOPC   H7Y42196   2.014   8.103   2.787 -0.7025 -0.3233  0.3195
  306DOPC   C3842197   2.107   8.019   2.967  0.2088  0.4130 -0.0717
  306DOPC   H8X42198   2.210   8.008   3.005 -0.1196 -0.0899  0.6957
  306DOPC   H8Y42199   2.085   7.919   2.924 -0.9449  0.7351 -0.2771
  306DOPC   C3942200   1.998   8.055   3.072 -0.3801  0.6006 -0.2007
  306DOPC   H9X42201   1.932   8.134   3.034 -0.6438 -0.0434 -1.1410
  306DOPC  C31042202   1.999   8.020   3.204  0.2788  0.1519  0.3192
  306DOPC  H10X42203   1.930   8.067   3.275  0.4314  0.2907  0.3785
  306DOPC  C31142204   2.102   7.930   3.268  0.4616  0.4030 -0.5342
  306DOPC  H11X42205   2.201   7.981   3.269  1.1222 -0.8434 -0.2822
  306DOPC  H11Y42206   2.121   7.844   3.199  0.7174  1.0898 -1.3353
  306DOPC  C31242207   2.068   7.874   3.411 -0.0840  0.5038 -0.4327
  306DOPC  H12X42208   2.158   7.811   3.428  1.3576  2.9253  1.6946
  306DOPC  H12Y42209   1.969   7.824   3.409  0.0216  0.3301 -1.5748
  306DOPC  C31342210   2.048   7.979   3.525 -0.3239  0.0480 -1.0139
  306DOPC  H13X42211   2.143   8.036   3.534  0.8601 -1.7886 -1.2653
  306DOPC  H13Y42212   1.973   8.050   3.485 -2.0706 -0.9153  0.4087
  306DOPC  C31442213   2.013   7.925   3.660 -0.2299  0.1045 -0.5976
  306DOPC  H14X42214   1.982   7.996   3.740  0.8720  0.8850 -0.8294
  306DOPC  H14Y42215   1.923   7.864   3.637  0.0860 -0.8552  0.6297
  306DOPC  C31542216   2.125   7.832   3.719  0.7737  0.3849 -0.4677
  306DOPC  H15X42217   2.225   7.878   3.732  0.5072  0.7109  0.4961
  306DOPC  H15Y42218   2.136   7.745   3.650 -1.9248 -0.4467  0.0266
  306DOPC  C31642219   2.084   7.768   3.855  0.3974 -0.2459 -0.1044
  306DOPC  H16X42220   2.056   7.853   3.921 -0.8575 -1.1905  0.6064
  306DOPC  H16Y42221   1.990   7.710   3.844 -0.8654  1.4927  0.9842
  306DOPC  C31742222   2.187   7.675   3.922  0.7004 -0.0270 -0.1820
  306DOPC  H17X42223   2.291   7.711   3.939 -0.1226  1.3634  2.7665
  306DOPC  H17Y42224   2.146   7.651   4.023 -2.5552  1.6237 -0.9651
  306DOPC  C31842225   2.190   7.541   3.852 -0.1276 -0.4995  0.2923
  306DOPC  H18X42226   2.088   7.498   3.843 -0.4184  0.2952 -0.3443
  306DOPC  H18Y42227   2.234   7.546   3.750 -0.4385  0.0000  0.1784
  306DOPC  H18Z42228   2.244   7.465   3.912  1.2377  1.4808  1.6992
  307DOPC     N42229   5.630   8.236   2.131 -0.2268  0.0560 -0.6799
  307DOPC   C1242230   5.734   8.231   2.030 -0.5684  0.2497  0.6460
  307DOPC  H12A42231   5.765   8.329   1.997 -2.7603  1.6864  2.5639
  307DOPC  H12B42232   5.677   8.190   1.948 -2.6613  3.2249  0.4491
  307DOPC   C1342233   5.529   8.331   2.088 -0.2145 -0.4435 -0.2270
  307DOPC  H13A42234   5.566   8.430   2.069 -1.3381  0.4061  1.7663
  307DOPC  H13B42235   5.473   8.307   1.999  0.5193  1.5600 -1.2771
  307DOPC  H13C42236   5.452   8.335   2.163 -0.3092 -0.9979 -0.2889
  307DOPC   C1442237   5.691   8.282   2.262  0.4258 -0.7580 -0.1673
  307DOPC  H14A42238   5.736   8.380   2.264 -0.6258 -0.2583  1.7729
  307DOPC  H14B42239   5.616   8.280   2.340  0.7758  2.4315  0.3882
  307DOPC  H14C42240   5.772   8.216   2.287 -0.2203 -1.5385 -0.0747
  307DOPC   C1542241   5.575   8.093   2.141 -0.3432  0.2088  0.5357
  307DOPC  H15A42242   5.562   8.045   2.045  3.2307 -1.0948  0.5561
  307DOPC  H15B42243   5.481   8.092   2.194 -1.1935  1.3535 -0.8942
  307DOPC  H15C42244   5.636   8.027   2.201 -0.0237 -0.9296 -1.0016
  307DOPC   C1142245   5.863   8.150   2.052  0.1857  0.1086 -0.5041
  307DOPC  H11A42246   5.837   8.044   2.072  1.3609 -0.6371 -2.6760
  307DOPC  H11B42247   5.911   8.150   1.952  1.6757  1.8384  0.1418
  307DOPC     P42248   6.080   8.286   2.129 -0.0142 -0.8129  0.1049
  307DOPC   O1342249   6.049   8.435   2.145  0.0809 -0.7624  0.0539
  307DOPC   O1442250   6.150   8.245   2.006  0.1870 -1.1270 -0.0881
  307DOPC   O1242251   5.948   8.207   2.146 -0.3035  0.0598 -0.1098
  307DOPC   O1142252   6.169   8.228   2.252 -0.3038  0.2448  0.2379
  307DOPC    C142253   6.252   8.313   2.335 -0.1843  0.3276  0.2973
  307DOPC    HA42254   6.254   8.416   2.295 -0.7273 -0.9155 -3.3244
  307DOPC    HB42255   6.350   8.262   2.325 -0.3351  0.1896 -0.6138
  307DOPC    C242256   6.203   8.311   2.477 -0.2464  0.3977 -0.9076
  307DOPC    HS42257   6.251   8.388   2.542  1.5356 -2.1209  0.9799
  307DOPC   O2142258   6.220   8.176   2.534 -0.5710 -0.3199  0.7929
  307DOPC   C2142259   6.340   8.126   2.545  0.5330 -0.2541  0.2570
  307DOPC   O2242260   6.446   8.191   2.543 -0.6078 -0.1078  0.3626
  307DOPC   C2242261   6.327   7.978   2.556 -0.0185 -0.2810 -0.6426
  307DOPC   H2R42262   6.262   7.928   2.481  0.7076 -1.3466 -0.5791
  307DOPC   H2S42263   6.285   7.962   2.658  1.6035 -1.4483 -0.1291
  307DOPC    C342264   6.056   8.356   2.483  0.2047  0.1477  0.4354
  307DOPC    HX42265   5.985   8.287   2.433 -0.6560  1.3656 -0.0774
  307DOPC    HY42266   6.048   8.451   2.426  0.5277  1.1048  1.9268
  307DOPC   O3142267   6.011   8.377   2.620  0.3298  0.0060  0.0673
  307DOPC   C3142268   5.872   8.381   2.627 -0.1393 -0.2256  0.1586
  307DOPC   O3242269   5.802   8.386   2.531 -0.1183  0.0398  0.0113
  307DOPC   C3242270   5.830   8.403   2.774  0.1224 -1.0961  0.4623
  307DOPC   H2X42271   5.897   8.485   2.808 -0.8463  0.0940 -0.4182
  307DOPC   H2Y42272   5.725   8.438   2.783  0.4960 -0.3191  2.2198
  307DOPC   C2342273   6.456   7.905   2.544 -0.5556 -0.1555  0.0159
  307DOPC   H3R42274   6.530   7.922   2.625 -0.3679  1.2968 -0.4264
  307DOPC   H3S42275   6.499   7.919   2.442  0.1817 -1.1644  0.1692
  307DOPC   C2442276   6.433   7.749   2.546 -0.2948 -0.4993  0.3473
  307DOPC   H4R42277   6.527   7.691   2.540  0.0829  0.1045  0.3856
  307DOPC   H4S42278   6.383   7.733   2.448  0.8318  0.0787 -0.3423
  307DOPC   C2542279   6.341   7.691   2.656 -0.5808 -0.0774 -0.2959
  307DOPC   H5R42280   6.324   7.585   2.629  0.2724  0.3583 -2.9202
  307DOPC   H5S42281   6.249   7.751   2.673  0.1766  1.3760 -1.0962
  307DOPC   C2642282   6.427   7.688   2.791  0.5664 -0.1658 -0.5735
  307DOPC   H6R42283   6.432   7.793   2.827 -0.5010 -0.5656  0.7985
  307DOPC   H6S42284   6.533   7.659   2.772  0.9893  1.2117 -0.4137
  307DOPC   C2742285   6.373   7.608   2.909  0.6787  0.6378  0.0476
  307DOPC   H7R42286   6.452   7.549   2.962  0.2143 -0.6323 -0.6307
  307DOPC   H7S42287   6.314   7.521   2.873  1.9648 -0.0937 -0.3917
  307DOPC   C2842288   6.301   7.695   3.013 -0.6065  0.4643  0.0619
  307DOPC   H8R42289   6.370   7.770   3.058 -0.2769 -0.9026  1.9654
  307DOPC   H8S42290   6.270   7.638   3.103 -0.0509  1.9574  1.2406
  307DOPC   C2942291   6.174   7.753   2.955 -0.0569 -0.1213  0.1111
  307DOPC   H9R42292   6.103   7.681   2.913  0.5344 -2.5063  2.8809
  307DOPC  C21042293   6.147   7.883   2.960  0.0122 -0.1339 -0.1002
  307DOPC  H10R42294   6.048   7.916   2.924  1.1394  2.4709 -1.0456
  307DOPC  C21142295   6.235   7.993   3.003  0.4431 -0.1596 -0.3206
  307DOPC  H11R42296   6.223   8.075   2.929  0.5030 -0.9421 -1.2117
  307DOPC  H11S42297   6.342   7.962   2.998  0.9076  0.7229  2.3778
  307DOPC  C21242298   6.214   8.037   3.147  0.1367  0.1950  0.5894
  307DOPC  H12R42299   6.288   8.117   3.170  0.7839 -0.0044 -0.6876
  307DOPC  H12S42300   6.222   7.957   3.223 -0.4515  0.3538  0.8242
  307DOPC  C21342301   6.083   8.114   3.163 -0.7719 -0.0924 -0.8517
  307DOPC  H13R42302   6.002   8.038   3.153 -2.3555  1.5867 -1.3378
  307DOPC  H13S42303   6.076   8.199   3.092  1.4355  0.9593  0.1038
  307DOPC  C21442304   6.070   8.188   3.295 -0.1841  0.5665  0.0049
  307DOPC  H14R42305   6.159   8.253   3.309  0.2638  0.8508 -3.3789
  307DOPC  H14S42306   6.072   8.108   3.372  0.3079  0.6340  0.0642
  307DOPC  C21542307   5.936   8.259   3.315 -0.6131 -0.0537  0.1593
  307DOPC  H15R42308   5.852   8.189   3.296 -1.0954  0.9788 -1.7204
  307DOPC  H15S42309   5.935   8.344   3.244 -0.3723 -1.0999 -1.1257
  307DOPC  C21642310   5.921   8.302   3.463 -0.0511  0.4460  0.2245
  307DOPC  H16R42311   6.006   8.369   3.489  2.3540 -2.5503  0.6994
  307DOPC  H16S42312   5.936   8.202   3.510 -2.8234 -0.3791 -0.4866
  307DOPC  C21742313   5.789   8.359   3.505  1.3177 -0.7644  0.4279
  307DOPC  H17R42314   5.707   8.284   3.510  0.8468 -0.4513 -1.4867
  307DOPC  H17S42315   5.760   8.424   3.419 -0.8326 -1.5496  0.5041
  307DOPC  C21842316   5.800   8.434   3.644 -0.0587  0.3239 -0.2169
  307DOPC  H18R42317   5.801   8.365   3.731  1.3996 -0.5927 -0.9241
  307DOPC  H18S42318   5.711   8.500   3.654  0.5482  1.0593  0.4309
  307DOPC  H18T42319   5.888   8.501   3.650  0.3909 -0.3101  0.3794
  307DOPC   C3342320   5.846   8.285   2.863  0.0324 -0.5921  0.0781
  307DOPC   H3X42321   5.953   8.256   2.873  0.4832  0.4760 -1.2788
  307DOPC   H3Y42322   5.789   8.202   2.816  0.3797  0.2087 -1.8466
  307DOPC   C3442323   5.774   8.309   2.995  0.2548  0.0914  0.2843
  307DOPC   H4X42324   5.824   8.392   3.050  0.6426  0.4194 -0.5513
  307DOPC   H4Y42325   5.783   8.220   3.062 -1.4171 -1.2870 -1.2112
  307DOPC   C3542326   5.631   8.342   2.972 -0.2469  0.2090  0.0305
  307DOPC   H5X42327   5.599   8.291   2.878 -2.2766 -0.0952  0.8344
  307DOPC   H5Y42328   5.614   8.450   2.953 -1.8104 -0.2409 -1.3922
  307DOPC   C3642329   5.531   8.287   3.079 -0.3441  0.1443 -0.1125
  307DOPC   H6X42330   5.426   8.289   3.042 -0.9554 -0.9819  1.3950
  307DOPC   H6Y42331   5.557   8.179   3.087  0.6245  0.3981  0.3319
  307DOPC   C3742332   5.546   8.349   3.217 -0.0595  0.1790 -0.0553
  307DOPC   H7X42333   5.653   8.337   3.245  0.4586  1.9089 -1.1473
  307DOPC   H7Y42334   5.530   8.459   3.215  1.0031  0.4074  1.4138
  307DOPC   C3842335   5.458   8.276   3.325 -0.1348 -0.2113  0.9446
  307DOPC   H8X42336   5.512   8.181   3.347  2.3834  1.1232  0.9754
  307DOPC   H8Y42337   5.358   8.249   3.285  0.1256  0.1886 -0.0245
  307DOPC   C3942338   5.444   8.361   3.446  0.7549  0.0122  0.4511
  307DOPC   H9X42339   5.524   8.353   3.521  1.7986  0.1783 -0.6195
  307DOPC  C31042340   5.337   8.444   3.465 -0.4190 -0.6980  0.7911
  307DOPC  H10X42341   5.340   8.497   3.561  1.0162 -3.1896  2.2337
  307DOPC  C31142342   5.211   8.471   3.385 -0.1772 -0.7753  1.1953
  307DOPC  H11X42343   5.224   8.442   3.279 -1.6868  1.4833  0.3103
  307DOPC  H11Y42344   5.200   8.581   3.379 -1.0465 -0.9304 -2.9912
  307DOPC  C31242345   5.080   8.405   3.427 -0.0576 -0.0040 -0.2324
  307DOPC  H12X42346   4.999   8.430   3.354  0.7624 -2.6349 -2.2239
  307DOPC  H12Y42347   5.039   8.441   3.523  1.9437  3.1550 -0.4447
  307DOPC  C31342348   5.079   8.249   3.442  0.9186 -0.0780  0.0060
  307DOPC  H13X42349   5.114   8.209   3.344  1.8639  1.2040 -0.2007
  307DOPC  H13Y42350   5.154   8.217   3.518  2.1786  0.7054 -0.8817
  307DOPC  C31442351   4.939   8.181   3.469  0.2520 -0.1654 -0.2179
  307DOPC  H14X42352   4.865   8.201   3.389 -0.8661  3.0436  1.4502
  307DOPC  H14Y42353   4.967   8.074   3.458 -0.4300 -0.7617  2.9406
  307DOPC  C31542354   4.898   8.218   3.609  0.3600 -1.2924 -0.8853
  307DOPC  H15X42355   4.891   8.329   3.616 -1.4580 -1.4495  0.7338
  307DOPC  H15Y42356   4.981   8.194   3.679 -0.2982  2.1837  1.3292
  307DOPC  C31642357   4.758   8.165   3.650 -0.2619  0.1917  0.3043
  307DOPC  H16X42358   4.774   8.060   3.682 -0.5126 -0.8350 -2.6510
  307DOPC  H16Y42359   4.730   8.228   3.737  0.6721  1.2959 -0.1645
  307DOPC  C31742360   4.646   8.172   3.552  0.0527  0.1660 -0.2351
  307DOPC  H17X42361   4.615   8.274   3.518 -2.6550 -0.3132  0.6051
  307DOPC  H17Y42362   4.681   8.113   3.465  1.6962  1.5620 -0.5821
  307DOPC  C31842363   4.520   8.103   3.609 -0.5757  0.8425  0.4258
  307DOPC  H18X42364   4.493   8.153   3.704  0.2399  0.5180  0.8453
  307DOPC  H18Y42365   4.436   8.098   3.536 -1.2837 -0.7687  1.2968
  307DOPC  H18Z42366   4.553   8.000   3.633 -2.6347  0.1509  0.4137
  308DOPC     N42367   6.827   2.253   2.447  0.1980  0.3813 -0.6859
  308DOPC   C1242368   6.794   2.283   2.590 -0.1935  0.3337  0.9036
  308DOPC  H12A42369   6.886   2.319   2.634  0.9617 -1.9783  0.5346
  308DOPC  H12B42370   6.767   2.192   2.642 -1.4417 -0.7481 -1.4634
  308DOPC   C1342371   6.716   2.168   2.388 -0.2079 -0.2121 -0.0988
  308DOPC  H13A42372   6.693   2.082   2.449 -0.0169  1.6592  2.7972
  308DOPC  H13B42373   6.628   2.230   2.378 -2.1454 -2.9523 -1.4281
  308DOPC  H13C42374   6.753   2.141   2.290 -1.0641  2.8102 -1.3717
  308DOPC   C1442375   6.953   2.170   2.445  0.7198  0.7616  0.0497
  308DOPC  H14A42376   6.946   2.083   2.509  2.5573  2.1501  2.2883
  308DOPC  H14B42377   6.969   2.145   2.341 -3.9054 -1.2684 -0.4279
  308DOPC  H14C42378   7.037   2.225   2.484  0.3105  2.1987 -1.0457
  308DOPC   C1542379   6.847   2.378   2.363 -0.5093  0.4256  0.2337
  308DOPC  H15A42380   6.845   2.355   2.258  2.5724  2.6703 -0.4355
  308DOPC  H15B42381   6.938   2.432   2.381  0.3532 -0.9718  0.1567
  308DOPC  H15C42382   6.765   2.448   2.378  0.2793  1.3920  0.1409
  308DOPC   C1142383   6.680   2.381   2.615  0.5131 -0.6295  0.2350
  308DOPC  H11A42384   6.667   2.401   2.723  1.8913 -0.6621  0.4189
  308DOPC  H11B42385   6.706   2.481   2.573 -1.2414  0.7402  2.2053
  308DOPC     P42386   6.427   2.417   2.539  0.3917 -0.3202 -0.4036
  308DOPC   O1342387   6.315   2.331   2.489 -0.4683 -0.2570  0.0854
  308DOPC   O1442388   6.457   2.539   2.465  0.1838 -0.3066 -0.2053
  308DOPC   O1242389   6.558   2.327   2.550  0.3401 -0.4427 -0.3034
  308DOPC   O1142390   6.382   2.455   2.688 -0.4481  0.1889 -0.3622
  308DOPC    C142391   6.330   2.352   2.779  0.0310  0.3698  0.9587
  308DOPC    HA42392   6.360   2.363   2.885  0.4032 -0.3641  0.9372
  308DOPC    HB42393   6.368   2.251   2.751 -0.3938  1.3558 -4.2418
  308DOPC    C242394   6.176   2.358   2.784  0.2160  0.4867  0.1653
  308DOPC    HS42395   6.137   2.339   2.682  1.1402  0.1910 -0.1396
  308DOPC   O2142396   6.139   2.493   2.824 -0.2207 -0.0492 -0.6453
  308DOPC   C2142397   6.012   2.529   2.781  0.3314 -0.4279  0.1049
  308DOPC   O2242398   5.932   2.459   2.716  0.2939 -0.4371 -0.6060
  308DOPC   C2242399   5.985   2.665   2.831  0.5174 -0.1890 -0.4127
  308DOPC   H2R42400   5.998   2.736   2.747 -2.3604  0.5979 -0.3206
  308DOPC   H2S42401   6.057   2.702   2.907 -1.0323  0.5229  0.7725
  308DOPC    C342402   6.113   2.260   2.879 -0.0202  0.0122 -0.2095
  308DOPC    HX42403   6.119   2.161   2.831  0.2324 -0.0367 -0.0797
  308DOPC    HY42404   6.006   2.288   2.883 -0.1350 -0.5503  1.2303
  308DOPC   O3142405   6.179   2.274   3.005  0.0785  0.4991  0.4117
  308DOPC   C3142406   6.237   2.159   3.053 -0.4484 -0.3095  0.3970
  308DOPC   O3242407   6.214   2.049   3.014  0.4837  0.0382 -0.3733
  308DOPC   C3242408   6.329   2.184   3.175  0.0559  0.5993  0.8378
  308DOPC   H2X42409   6.414   2.112   3.173 -1.6055 -1.4626 -1.5871
  308DOPC   H2Y42410   6.372   2.285   3.157 -1.1423  0.7615 -1.6529
  308DOPC   C2342411   5.837   2.697   2.879  0.3066  0.9998 -0.2752
  308DOPC   H3R42412   5.758   2.652   2.815  0.1054 -1.2252  1.3938
  308DOPC   H3S42413   5.827   2.807   2.881 -2.6285  0.7872  1.3029
  308DOPC   C2442414   5.808   2.648   3.028 -0.4048 -0.1124  0.2398
  308DOPC   H4R42415   5.703   2.679   3.047 -1.0804 -1.6889 -0.6713
  308DOPC   H4S42416   5.884   2.704   3.088  0.1633 -0.1923 -0.3921
  308DOPC   C2542417   5.821   2.499   3.062  0.4824  0.3642  0.6213
  308DOPC   H5R42418   5.928   2.470   3.057  0.4756  0.4270 -4.0758
  308DOPC   H5S42419   5.773   2.446   2.977  0.8348  1.3628 -0.2213
  308DOPC   C2642420   5.762   2.466   3.199  0.2342  0.6698 -1.0031
  308DOPC   H6R42421   5.652   2.482   3.202  0.5385  3.5859 -1.6516
  308DOPC   H6S42422   5.800   2.534   3.278 -1.5727  1.6032 -0.8834
  308DOPC   C2742423   5.789   2.315   3.229  0.1424  0.3265  0.1668
  308DOPC   H7R42424   5.895   2.296   3.200  0.3237 -1.2748  1.6898
  308DOPC   H7S42425   5.716   2.256   3.170 -2.1764 -0.0828  3.1977
  308DOPC   C2842426   5.784   2.280   3.380  0.8624  1.3328 -0.3592
  308DOPC   H8R42427   5.838   2.352   3.445  0.4190  0.8286  0.5859
  308DOPC   H8S42428   5.844   2.187   3.383  0.3242  1.0035  1.3377
  308DOPC   C2942429   5.647   2.250   3.432 -0.3534  0.2859 -0.2610
  308DOPC   H9R42430   5.571   2.324   3.401 -0.4962  0.2444 -0.0115
  308DOPC  C21042431   5.610   2.147   3.511 -0.3591  0.0855 -0.7909
  308DOPC  H10R42432   5.504   2.142   3.540 -0.1201  0.8109  0.2855
  308DOPC  C21142433   5.703   2.041   3.562  0.4213 -0.0438 -0.1327
  308DOPC  H11R42434   5.810   2.065   3.582  0.3084  0.3313  0.0319
  308DOPC  H11S42435   5.715   1.967   3.481 -2.8014 -0.7938 -0.0550
  308DOPC  C21242436   5.637   1.962   3.679 -0.0580  0.1393  0.0356
  308DOPC  H12R42437   5.607   2.036   3.757 -1.3793  1.3411 -1.5529
  308DOPC  H12S42438   5.724   1.907   3.721  0.3728  1.0694  0.4004
  308DOPC  C21342439   5.531   1.855   3.645 -0.0095  0.0351  0.1717
  308DOPC  H13R42440   5.586   1.770   3.600  0.4156  0.4961 -0.1902
  308DOPC  H13S42441   5.464   1.901   3.569  0.1178 -0.3089 -0.1525
  308DOPC  C21442442   5.448   1.800   3.766 -0.1821  0.2104  0.5067
  308DOPC  H14R42443   5.522   1.765   3.842 -1.8757 -1.7146  1.3740
  308DOPC  H14S42444   5.387   1.719   3.722 -2.4687  1.7335  0.6970
  308DOPC  C21542445   5.361   1.900   3.829 -0.1363 -1.0778 -0.1562
  308DOPC  H15R42446   5.423   1.979   3.877 -2.0139 -0.8535  2.0686
  308DOPC  H15S42447   5.299   1.862   3.913 -0.8623  0.3517  0.0057
  308DOPC  C21642448   5.251   1.970   3.743 -0.6698  0.1519  0.2727
  308DOPC  H16R42449   5.181   1.893   3.704 -2.5152  2.4244 -1.1773
  308DOPC  H16S42450   5.311   2.015   3.661  0.5005  1.0464  1.5715
  308DOPC  C21742451   5.176   2.073   3.822 -0.6025 -0.2583 -0.1233
  308DOPC  H17R42452   5.242   2.124   3.894 -0.9558 -2.7278  2.1085
  308DOPC  H17S42453   5.101   2.020   3.884  0.7462 -2.3964 -0.1962
  308DOPC  C21842454   5.107   2.176   3.730  0.4602 -0.2583  0.5399
  308DOPC  H18R42455   5.171   2.233   3.659 -0.2452 -1.1693 -0.8594
  308DOPC  H18S42456   5.057   2.255   3.791 -0.8802 -0.9574  0.3959
  308DOPC  H18T42457   5.025   2.134   3.668  0.8736  2.3681 -2.0282
  308DOPC   C3342458   6.254   2.171   3.307 -0.1330 -0.3472 -0.1066
  308DOPC   H3X42459   6.152   2.213   3.296  0.1096  0.0910 -0.7997
  308DOPC   H3Y42460   6.303   2.246   3.372 -0.3365 -1.7334  1.7165
  308DOPC   C3442461   6.250   2.038   3.379 -0.5417 -1.1231 -0.2157
  308DOPC   H4X42462   6.348   1.986   3.384 -0.0882 -0.2626 -0.0611
  308DOPC   H4Y42463   6.181   1.964   3.332 -2.0220 -1.7329  2.6776
  308DOPC   C3542464   6.188   2.052   3.522 -0.8715 -0.8757  0.4595
  308DOPC   H5X42465   6.082   2.080   3.503 -0.2483 -0.2298 -2.7044
  308DOPC   H5Y42466   6.236   2.129   3.586  0.5435 -0.7643 -0.6889
  308DOPC   C3642467   6.188   1.920   3.604  0.2616 -0.2505 -0.8775
  308DOPC   H6X42468   6.183   1.831   3.537 -1.3191 -0.2273 -0.8299
  308DOPC   H6Y42469   6.288   1.929   3.651  0.4615 -1.6734 -0.9904
  308DOPC   C3742470   6.067   1.916   3.699  0.0088  0.3798  0.3729
  308DOPC   H7X42471   6.049   2.022   3.723  0.9793  1.0516 -1.6150
  308DOPC   H7Y42472   5.976   1.878   3.646 -0.2047  0.0607  0.9639
  308DOPC   C3842473   6.093   1.831   3.820 -0.1419 -0.1637 -0.3918
  308DOPC   H8X42474   6.184   1.857   3.879  1.2431 -2.7269 -1.2421
  308DOPC   H8Y42475   6.112   1.726   3.787  1.0016  0.1544 -0.7908
  308DOPC   C3942476   5.970   1.841   3.909  0.2064  0.2151 -0.0664
  308DOPC   H9X42477   5.897   1.919   3.885  0.7028  0.2338 -1.5908
  308DOPC  C31042478   5.962   1.759   4.019 -0.1270 -0.4328 -0.1577
  308DOPC  H10X42479   5.883   1.786   4.090 -0.2385  1.2992 -0.8932
  308DOPC  C31142480   6.065   1.652   4.055  0.8891  0.5153  0.0254
  308DOPC  H11X42481   6.074   1.645   4.165  0.7657  0.4185  0.0294
  308DOPC  H11Y42482   6.169   1.669   4.018 -0.1890  1.8410 -2.6841
  308DOPC  C31242483   6.012   1.515   4.003  0.4170 -0.5318 -0.2355
  308DOPC  H12X42484   5.996   1.524   3.893  2.0462  1.5273 -0.3544
  308DOPC  H12Y42485   5.917   1.504   4.059  0.8984  0.9761  0.9472
  308DOPC  C31342486   6.099   1.395   4.039 -0.0540  0.2277 -0.2847
  308DOPC  H13X42487   6.197   1.394   3.988  0.0134 -3.5475 -0.3906
  308DOPC  H13Y42488   6.130   1.391   4.146  1.8841 -1.0759 -0.8451
  308DOPC  C31442489   6.033   1.261   4.013 -0.1984  0.5315 -0.3716
  308DOPC  H14X42490   6.085   1.177   4.063  1.3368  0.0129 -2.6889
  308DOPC  H14Y42491   5.927   1.271   4.046 -0.7499  1.9273 -2.3814
  308DOPC  C31542492   6.020   1.221   3.862  0.4835 -0.0563 -0.3447
  308DOPC  H15X42493   6.120   1.211   3.814  1.8913  1.8374  1.9427
  308DOPC  H15Y42494   5.962   1.301   3.812  0.3301  0.0071 -0.0700
  308DOPC  C31642495   5.942   1.089   3.847 -0.8038 -0.1063 -0.0362
  308DOPC  H16X42496   6.001   0.998   3.870 -0.5575 -0.2642 -1.2572
  308DOPC  H16Y42497   5.856   1.079   3.917  0.2952  2.6155  1.8930
  308DOPC  C31742498   5.892   1.056   3.703  0.0744 -0.1918  0.4408
  308DOPC  H17X42499   5.833   1.141   3.663  0.3957  0.1343  0.6605
  308DOPC  H17Y42500   5.981   1.041   3.638 -0.6332 -0.1424 -0.5607
  308DOPC  C31842501   5.800   0.939   3.692  0.2053 -1.1774  0.4131
  308DOPC  H18X42502   5.786   0.923   3.583  1.4722 -0.2671  0.0930
  308DOPC  H18Y42503   5.849   0.845   3.727  0.0030 -1.2978  0.3704
  308DOPC  H18Z42504   5.710   0.949   3.755 -0.3813  0.1484 -0.6035
  309DOPC     N42505   4.789   4.543   1.371 -0.6060 -0.5552  0.0760
  309DOPC   C1242506   4.703   4.491   1.479 -0.6173  0.0130 -0.5847
  309DOPC  H12A42507   4.657   4.400   1.443  0.5137 -0.3430 -1.1950
  309DOPC  H12B42508   4.621   4.560   1.491 -0.5028 -0.2696  2.4683
  309DOPC   C1342509   4.704   4.543   1.244  0.7231 -0.6147  0.9375
  309DOPC  H13A42510   4.774   4.561   1.164 -2.1395 -0.1300 -1.6639
  309DOPC  H13B42511   4.661   4.449   1.214 -1.6868  1.1110 -1.5118
  309DOPC  H13C42512   4.623   4.614   1.244 -0.6585 -2.1129 -0.6987
  309DOPC   C1442513   4.902   4.448   1.338  0.3345 -0.1905 -0.2261
  309DOPC  H14A42514   4.967   4.480   1.258  0.3117 -0.3867 -0.3259
  309DOPC  H14B42515   4.957   4.426   1.428 -0.6936 -1.2571  0.1672
  309DOPC  H14C42516   4.857   4.357   1.300  0.8473 -0.4220 -0.2772
  309DOPC   C1542517   4.854   4.676   1.401  0.1974 -0.6850 -0.5805
  309DOPC  H15A42518   4.933   4.667   1.474 -0.2802 -1.8337 -0.1717
  309DOPC  H15B42519   4.784   4.755   1.425  1.1211 -0.5720  2.1065
  309DOPC  H15C42520   4.903   4.708   1.311 -1.0120  2.6871 -0.1877
  309DOPC   C1142521   4.765   4.492   1.622 -0.5935  0.7300 -0.2561
  309DOPC  H11A42522   4.782   4.590   1.672 -1.5427  1.0982 -0.6225
  309DOPC  H11B42523   4.683   4.449   1.683 -0.9228 -0.0587 -1.2157
  309DOPC     P42524   4.874   4.263   1.700  0.4698 -0.0011  0.1590
  309DOPC   O1342525   4.995   4.194   1.653 -0.0905 -0.5891 -0.2230
  309DOPC   O1442526   4.743   4.195   1.697  0.5375  0.4460 -0.3181
  309DOPC   O1242527   4.878   4.407   1.637 -0.2227 -0.3265 -0.3433
  309DOPC   O1142528   4.898   4.283   1.848 -0.3791 -0.1501 -0.2808
  309DOPC    C142529   4.804   4.333   1.942  0.1765 -0.0435  0.0526
  309DOPC    HA42530   4.738   4.245   1.956  2.0282 -1.2865  1.3307
  309DOPC    HB42531   4.753   4.423   1.901  1.4691  1.1832  1.0235
  309DOPC    C242532   4.869   4.368   2.078 -0.2321 -0.5754 -0.1343
  309DOPC    HS42533   4.939   4.453   2.064 -0.5007 -0.1545  1.0009
  309DOPC   O2142534   4.930   4.244   2.127 -0.2737  0.6720 -0.4796
  309DOPC   C2142535   5.029   4.252   2.220 -0.4751 -0.8594  0.0524
  309DOPC   O2242536   5.097   4.349   2.245  0.4855  0.3225  0.3167
  309DOPC   C2242537   5.024   4.125   2.305 -0.1893  0.0956 -0.3384
  309DOPC   H2R42538   5.089   4.052   2.251  0.3689  1.2008 -1.2133
  309DOPC   H2S42539   4.919   4.092   2.295  0.0382 -0.7085 -0.1626
  309DOPC    C342540   4.767   4.420   2.183  0.2253 -0.1655  0.1875
  309DOPC    HX42541   4.698   4.342   2.221  0.3973 -0.1390  0.5642
  309DOPC    HY42542   4.701   4.485   2.122 -0.1314  0.4873  1.2502
  309DOPC   O3142543   4.826   4.480   2.302 -0.3836 -0.1875  0.4786
  309DOPC   C3142544   4.850   4.606   2.280 -0.9664  0.1705 -0.7977
  309DOPC   O3242545   4.829   4.665   2.175  0.2245 -0.3996  0.4049
  309DOPC   C3242546   4.920   4.675   2.398  0.3917  0.1131 -0.3632
  309DOPC   H2X42547   4.936   4.602   2.481  1.1807  1.1762  0.4373
  309DOPC   H2Y42548   5.024   4.698   2.367  0.9082  0.5392  1.5283
  309DOPC   C2342549   5.065   4.147   2.449 -0.6603 -0.5494 -0.6212
  309DOPC   H3R42550   5.140   4.229   2.450 -0.4030 -0.7703  1.1980
  309DOPC   H3S42551   5.114   4.060   2.497  0.5550  0.3389 -0.2056
  309DOPC   C2442552   4.953   4.188   2.542 -0.0633 -0.7771  0.3188
  309DOPC   H4R42553   4.866   4.121   2.526 -0.7949  0.2287 -0.0556
  309DOPC   H4S42554   4.926   4.294   2.523 -0.0389 -0.8998 -0.4274
  309DOPC   C2542555   4.982   4.193   2.687  0.4172 -0.5847 -0.4896
  309DOPC   H5R42556   5.079   4.246   2.702  0.0083 -0.0015  0.1772
  309DOPC   H5S42557   5.008   4.092   2.727 -2.0834 -0.4902  1.6558
  309DOPC   C2642558   4.866   4.256   2.765 -0.3729  0.2689 -0.5139
  309DOPC   H6R42559   4.766   4.221   2.732  0.5941 -2.6812 -0.6766
  309DOPC   H6S42560   4.872   4.366   2.758 -1.0353  0.6807  3.2943
  309DOPC   C2742561   4.880   4.236   2.916 -0.2925 -0.4749  0.2629
  309DOPC   H7R42562   4.984   4.269   2.938  0.3831 -1.5653 -1.1307
  309DOPC   H7S42563   4.886   4.129   2.944  0.5477 -0.3116  0.7487
  309DOPC   C2842564   4.781   4.324   2.999  0.1048 -0.1798  0.5176
  309DOPC   H8R42565   4.777   4.426   2.953 -1.2029 -0.4930 -0.1144
  309DOPC   H8S42566   4.824   4.335   3.101  2.1895 -0.6863 -0.2601
  309DOPC   C2942567   4.648   4.253   3.010 -0.0621 -0.4493  0.7477
  309DOPC   H9R42568   4.609   4.201   2.920 -1.3022  2.1602 -0.3218
  309DOPC  C21042569   4.569   4.267   3.122  0.8506 -0.7948 -0.1178
  309DOPC  H10R42570   4.487   4.194   3.124  1.4732 -1.4910  0.9387
  309DOPC  C21142571   4.589   4.346   3.253 -0.2885 -0.8618 -0.3392
  309DOPC  H11R42572   4.581   4.454   3.226 -1.7178 -0.7605  0.4224
  309DOPC  H11S42573   4.692   4.330   3.291 -0.1589 -0.1451 -0.3679
  309DOPC  C21242574   4.483   4.321   3.370 -0.9683  0.3791  0.3462
  309DOPC  H12R42575   4.489   4.218   3.412 -2.3851  0.7425  1.5114
  309DOPC  H12S42576   4.383   4.329   3.322 -1.1008 -0.2024  0.5101
  309DOPC  C21342577   4.490   4.426   3.484 -0.0192 -0.0506  0.2964
  309DOPC  H13R42578   4.484   4.523   3.431 -1.8230 -0.5226 -0.4300
  309DOPC  H13S42579   4.583   4.412   3.544  0.7903 -1.5979 -1.2293
  309DOPC  C21442580   4.380   4.400   3.584  0.2730  0.6454 -0.0994
  309DOPC  H14R42581   4.406   4.301   3.626 -0.1574  0.7295  0.3745
  309DOPC  H14S42582   4.277   4.397   3.543 -0.5226  0.0400  1.8037
  309DOPC  C21542583   4.380   4.512   3.683  1.0889 -0.0405 -0.5504
  309DOPC  H15R42584   4.357   4.608   3.631 -0.7248  0.0073  0.2510
  309DOPC  H15S42585   4.482   4.524   3.724  0.7700 -1.2832  0.6585
  309DOPC  C21642586   4.288   4.492   3.808  0.4820  0.1804  0.3092
  309DOPC  H16R42587   4.180   4.471   3.788  0.8029 -0.2365 -1.1597
  309DOPC  H16S42588   4.285   4.586   3.867  0.4214  0.7858 -0.6383
  309DOPC  C21742589   4.327   4.361   3.894 -0.1161 -0.6470  0.3644
  309DOPC  H17R42590   4.434   4.365   3.924 -0.5869  2.5319  1.9809
  309DOPC  H17S42591   4.317   4.274   3.824 -2.5042  0.5249 -0.8534
  309DOPC  C21842592   4.241   4.362   4.023 -0.0806  0.5730  0.0779
  309DOPC  H18R42593   4.280   4.283   4.091  0.7275  0.3427 -0.6304
  309DOPC  H18S42594   4.133   4.344   4.008 -0.6342 -0.9586  4.4465
  309DOPC  H18T42595   4.260   4.451   4.086 -1.2351 -0.7027  2.3248
  309DOPC   C3342596   4.837   4.787   2.476 -0.5057 -0.1194  0.6652
  309DOPC   H3X42597   4.735   4.752   2.502 -1.0851  1.7301  1.0567
  309DOPC   H3Y42598   4.823   4.877   2.413 -1.3943 -0.9811 -0.4046
  309DOPC   C3442599   4.903   4.829   2.609 -0.3806 -0.0520  0.0622
  309DOPC   H4X42600   5.004   4.874   2.599 -0.7157  1.6540  3.0674
  309DOPC   H4Y42601   4.906   4.739   2.675  2.3663  0.9553  1.4640
  309DOPC   C3542602   4.816   4.940   2.675 -0.0176  0.7123 -0.0770
  309DOPC   H5X42603   4.720   4.895   2.705  0.8288  0.5134  2.5948
  309DOPC   H5Y42604   4.794   5.031   2.614 -2.5683  1.1675  1.4052
  309DOPC   C3642605   4.867   4.986   2.813 -0.0676  0.3776  0.3103
  309DOPC   H6X42606   4.880   4.899   2.880 -0.5815  0.4940  0.5626
  309DOPC   H6Y42607   4.969   5.030   2.806  1.0615 -2.2742 -1.1027
  309DOPC   C3742608   4.773   5.078   2.892 -0.3764  0.2620  0.4370
  309DOPC   H7X42609   4.752   5.173   2.837 -2.9171 -0.4163  0.1305
  309DOPC   H7Y42610   4.669   5.039   2.890 -0.1308 -0.4169  0.6520
  309DOPC   C3842611   4.813   5.099   3.036  0.2359  0.2236 -0.5414
  309DOPC   H8X42612   4.851   5.003   3.078  0.7635  0.3591 -0.7044
  309DOPC   H8Y42613   4.728   5.146   3.090  1.3250  0.4417  1.0458
  309DOPC   C3942614   4.938   5.192   3.043  0.3885  0.8764 -0.4454
  309DOPC   H9X42615   5.034   5.142   3.025  1.3135  2.0037  1.1275
  309DOPC  C31042616   4.941   5.323   3.066  0.4410  0.7866 -0.2900
  309DOPC  H10X42617   5.042   5.366   3.069  0.7522  0.1225 -0.9520
  309DOPC  C31142618   4.831   5.417   3.091 -0.0907  0.0081 -0.1365
  309DOPC  H11X42619   4.732   5.371   3.071 -0.6003 -0.1585  2.4306
  309DOPC  H11Y42620   4.837   5.512   3.035 -3.9664  1.5944  1.7826
  309DOPC  C31242621   4.828   5.463   3.240  0.3938  0.2528 -0.0645
  309DOPC  H12X42622   4.930   5.503   3.261 -0.5441  1.9059  1.7245
  309DOPC  H12Y42623   4.803   5.385   3.315 -0.0657 -0.0480 -0.5323
  309DOPC  C31342624   4.752   5.595   3.275  0.0246  0.2462  0.1594
  309DOPC  H13X42625   4.797   5.680   3.220 -0.9405  1.4500  1.1546
  309DOPC  H13Y42626   4.645   5.585   3.246 -0.1502  1.6548  0.2094
  309DOPC  C31442627   4.756   5.632   3.420 -0.5928  0.2637  0.1894
  309DOPC  H14X42628   4.740   5.543   3.485  0.3115 -0.6378 -0.7828
  309DOPC  H14Y42629   4.847   5.684   3.460 -0.6093 -0.7844  1.6721
  309DOPC  C31542630   4.639   5.728   3.459 -0.3912  0.2263  0.0826
  309DOPC  H15X42631   4.555   5.664   3.424  1.2616 -1.2684 -1.3131
  309DOPC  H15Y42632   4.643   5.811   3.385 -1.0092  0.1094 -0.0924
  309DOPC  C31642633   4.623   5.760   3.608  0.2342  0.0850  0.4293
  309DOPC  H16X42634   4.723   5.792   3.645  0.3653  0.5394 -0.2908
  309DOPC  H16Y42635   4.563   5.849   3.637 -0.0446 -0.1690  0.6275
  309DOPC  C31742636   4.598   5.638   3.692  0.0175  0.3807  0.2031
  309DOPC  H17X42637   4.498   5.599   3.662  0.7013 -1.9149  0.7203
  309DOPC  H17Y42638   4.676   5.561   3.672 -0.3964  0.0179 -0.0277
  309DOPC  C31842639   4.588   5.665   3.839  0.5230  0.1176 -0.2188
  309DOPC  H18X42640   4.516   5.747   3.862  1.2938  0.7157  0.1080
  309DOPC  H18Y42641   4.561   5.575   3.899  1.5739  0.9852  1.6206
  309DOPC  H18Z42642   4.690   5.695   3.871 -0.0765  2.1182 -0.0484
  310DOPC     N42643   7.688  12.158   2.604  0.0341 -0.3226  0.1053
  310DOPC   C1242644   7.586  12.181   2.709 -0.6338 -0.7563 -0.4262
  310DOPC  H12A42645   7.528  12.266   2.675  2.2477  1.3420 -0.4464
  310DOPC  H12B42646   7.635  12.225   2.795  0.4893 -2.3511 -0.2120
  310DOPC   C1342647   7.796  12.270   2.616  0.3293 -0.0943  0.4723
  310DOPC  H13A42648   7.863  12.259   2.532 -0.0135  1.1671  0.0096
  310DOPC  H13B42649   7.750  12.367   2.621 -2.4704 -1.1629 -1.7347
  310DOPC  H13C42650   7.855  12.247   2.703  0.6172 -0.5082  0.1729
  310DOPC   C1442651   7.640  12.161   2.470 -0.0056  0.2154  1.2519
  310DOPC  H14A42652   7.574  12.245   2.454  0.0149  0.0546  0.3166
  310DOPC  H14B42653   7.720  12.158   2.398 -0.6103 -1.7193  0.6181
  310DOPC  H14C42654   7.586  12.074   2.438  0.9120  0.2107 -0.3678
  310DOPC   C1542655   7.764  12.025   2.630 -0.5999  0.4279  0.2263
  310DOPC  H15A42656   7.810  12.025   2.727  0.8066 -2.2081 -0.3401
  310DOPC  H15B42657   7.848  12.012   2.563 -0.9793 -0.3857 -0.1077
  310DOPC  H15C42658   7.697  11.940   2.628 -0.4641  0.2810  1.4858
  310DOPC   C1142659   7.497  12.064   2.736 -0.3699  0.3336  0.4674
  310DOPC  H11A42660   7.559  11.974   2.757  0.3788  0.3871 -1.3253
  310DOPC  H11B42661   7.441  12.093   2.828  1.9255  2.7032  1.2699
  310DOPC     P42662   7.283  12.129   2.606  0.0735 -0.3069 -0.0296
  310DOPC   O1342663   7.210  12.092   2.480 -0.1034  0.2734  0.0026
  310DOPC   O1442664   7.319  12.276   2.615 -0.3661 -0.2084 -0.2060
  310DOPC   O1242665   7.417  12.043   2.620 -0.7257  0.2670  0.7901
  310DOPC   O1142666   7.201  12.083   2.728  0.1164 -0.0536 -0.0507
  310DOPC    C142667   7.194  11.946   2.766 -0.2039  0.5810 -0.2036
  310DOPC    HA42668   7.297  11.912   2.791 -0.6580 -0.9476 -0.3213
  310DOPC    HB42669   7.152  11.881   2.687 -0.4781  0.8118 -0.2480
  310DOPC    C242670   7.118  11.920   2.899 -0.6144  0.5630  0.1949
  310DOPC    HS42671   7.011  11.941   2.879 -0.2572  0.8879 -1.4984
  310DOPC   O2142672   7.193  12.002   2.992  0.4183  0.4487  0.4566
  310DOPC   C2142673   7.129  12.112   3.016 -0.2316 -0.0332 -0.4836
  310DOPC   O2242674   7.023  12.150   2.978  0.1848  0.6167  0.6844
  310DOPC   C2242675   7.196  12.182   3.136 -0.3581 -0.0625  0.0665
  310DOPC   H2R42676   7.286  12.229   3.091  0.5933 -2.3864 -0.6101
  310DOPC   H2S42677   7.229  12.105   3.209 -0.0387 -0.9007 -0.9267
  310DOPC    C342678   7.133  11.767   2.936 -0.6380  0.4132  0.4313
  310DOPC    HX42679   7.235  11.732   2.911  0.0539  2.4016  0.3481
  310DOPC    HY42680   7.059  11.706   2.879  1.0519 -0.6207 -0.7340
  310DOPC   O3142681   7.112  11.737   3.077 -0.2928 -0.2550 -0.1350
  310DOPC   C3142682   6.992  11.736   3.118 -0.3777  0.2975  0.1737
  310DOPC   O3242683   6.895  11.755   3.053  0.3310 -0.3321  0.3115
  310DOPC   C3242684   6.982  11.717   3.271  0.6267  0.3523 -0.2210
  310DOPC   H2X42685   6.874  11.717   3.296  0.8645 -3.1349  1.3070
  310DOPC   H2Y42686   7.026  11.619   3.299 -1.3023 -0.3152  0.6167
  310DOPC   C2342687   7.114  12.287   3.208  0.1896  0.7235 -0.4039
  310DOPC   H3R42688   7.009  12.251   3.220 -0.1721  0.8940 -2.6025
  310DOPC   H3S42689   7.119  12.385   3.156  1.0070  0.3900 -0.9764
  310DOPC   C2442690   7.160  12.319   3.355  0.3491  0.1942  0.5714
  310DOPC   H4R42691   7.172  12.223   3.411  0.5167 -1.7038 -2.4788
  310DOPC   H4S42692   7.078  12.378   3.400  1.4267 -0.0969  3.0602
  310DOPC   C2542693   7.292  12.388   3.366 -0.6254  0.3775 -0.6337
  310DOPC   H5R42694   7.290  12.490   3.324 -0.6257  1.0823  0.9947
  310DOPC   H5S42695   7.366  12.329   3.307  0.2007 -0.6253  1.3164
  310DOPC   C2642696   7.333  12.388   3.512 -0.4286  0.7705 -0.5725
  310DOPC   H6R42697   7.263  12.447   3.575 -1.0329  1.2924 -1.6929
  310DOPC   H6S42698   7.429  12.444   3.515  0.4688 -0.6981 -0.8754
  310DOPC   C2742699   7.365  12.250   3.569 -0.6008  0.3465  0.0841
  310DOPC   H7R42700   7.461  12.212   3.527  0.3695  0.9627  1.6473
  310DOPC   H7S42701   7.281  12.179   3.557  0.7953 -1.3365 -0.1566
  310DOPC   C2842702   7.384  12.248   3.729  0.8713 -0.3896  0.4384
  310DOPC   H8R42703   7.293  12.295   3.771 -0.0528  0.9369 -2.8088
  310DOPC   H8S42704   7.466  12.318   3.757  0.6860 -0.2645  0.6667
  310DOPC   C2942705   7.411  12.113   3.792  0.0625  0.6290 -0.3734
  310DOPC   H9R42706   7.387  12.030   3.724 -4.0457  2.8358 -1.9225
  310DOPC  C21042707   7.446  12.090   3.917 -0.3203 -0.0946 -0.3822
  310DOPC  H10R42708   7.450  11.987   3.953 -4.0939 -0.0529  0.5356
  310DOPC  C21142709   7.489  12.199   4.015  0.1218  0.5318 -1.1189
  310DOPC  H11R42710   7.525  12.294   3.972  1.5137  0.6861  0.3039
  310DOPC  H11S42711   7.582  12.169   4.067 -0.7636 -0.6488 -0.1472
  310DOPC  C21242712   7.378  12.235   4.117  0.2409  0.3132 -0.3268
  310DOPC  H12R42713   7.410  12.328   4.168 -1.2407  0.3869  0.5084
  310DOPC  H12S42714   7.380  12.155   4.194  2.2986  0.7626  0.1311
  310DOPC  C21342715   7.230  12.271   4.074 -0.6684  0.3081  0.2036
  310DOPC  H13R42716   7.197  12.190   4.006  1.0557 -0.3008  0.0483
  310DOPC  H13S42717   7.233  12.360   4.007 -2.5334 -0.2173 -0.6487
  310DOPC  C21442718   7.133  12.283   4.190  0.3427 -0.4165 -0.1890
  310DOPC  H14R42719   7.174  12.335   4.279  1.4492 -1.2767 -0.1738
  310DOPC  H14S42720   7.091  12.184   4.218 -0.1471  0.1845  1.3013
  310DOPC  C21542721   7.005  12.361   4.145  0.6085 -0.2122  0.2011
  310DOPC  H15R42722   7.036  12.464   4.119  1.1455 -0.2310  0.7563
  310DOPC  H15S42723   6.934  12.370   4.230 -0.9640  0.9990 -1.1593
  310DOPC  C21642724   6.929  12.309   4.018 -0.1179 -0.0500 -0.0741
  310DOPC  H16R42725   6.822  12.339   4.019 -0.6444 -1.6897  2.0047
  310DOPC  H16S42726   6.935  12.198   4.029  0.7279 -0.0359 -0.2814
  310DOPC  C21742727   6.992  12.353   3.890  0.3805  0.1331  0.7662
  310DOPC  H17R42728   7.088  12.300   3.876 -0.0865 -0.3346 -0.8743
  310DOPC  H17S42729   7.007  12.464   3.891 -0.4080  0.2770 -0.8257
  310DOPC  C21842730   6.895  12.338   3.763  0.8181  0.6015 -0.4914
  310DOPC  H18R42731   6.790  12.367   3.784  0.4952 -0.6680 -0.2319
  310DOPC  H18S42732   6.898  12.233   3.727  0.8525  0.4272  0.0015
  310DOPC  H18T42733   6.927  12.401   3.678  2.9584 -0.4540 -0.5529
  310DOPC   C3342734   7.057  11.832   3.340 -0.2731 -0.2711  0.2447
  310DOPC   H3X42735   7.017  11.932   3.314  0.6929 -0.2453 -1.2739
  310DOPC   H3Y42736   7.162  11.827   3.303 -0.2685 -1.2164  0.3797
  310DOPC   C3442737   7.053  11.812   3.488 -0.1514 -0.2477  0.4075
  310DOPC   H4X42738   7.109  11.721   3.517  1.8316  0.4551 -1.0276
  310DOPC   H4Y42739   6.944  11.800   3.506 -0.3974  0.5140 -0.5136
  310DOPC   C3542740   7.092  11.937   3.565  0.6908  0.3852 -0.8408
  310DOPC   H5X42741   7.045  12.024   3.515 -0.5719  0.0840 -0.2152
  310DOPC   H5Y42742   7.203  11.945   3.561  0.7778 -0.8370 -1.4680
  310DOPC   C3642743   7.032  11.923   3.708  0.0520 -0.1036 -0.6181
  310DOPC   H6X42744   7.040  12.026   3.749  1.0583 -0.6022  0.5050
  310DOPC   H6Y42745   6.923  11.907   3.699 -0.2416  1.5094 -0.2894
  310DOPC   C3742746   7.099  11.815   3.787 -0.6769  0.8161  0.6299
  310DOPC   H7X42747   7.056  11.716   3.764  1.4609  0.0129 -0.1582
  310DOPC   H7Y42748   7.208  11.805   3.767 -0.7692 -1.2706  0.9368
  310DOPC   C3842749   7.091  11.837   3.942 -0.2709  0.9494 -0.1483
  310DOPC   H8X42750   6.982  11.827   3.960 -0.2367  0.8132 -0.0142
  310DOPC   H8Y42751   7.123  11.940   3.970  0.5879  0.3379  1.2305
  310DOPC   C3942752   7.175  11.727   4.007 -0.6196 -0.0995 -0.2579
  310DOPC   H9X42753   7.164  11.625   3.968  0.3343 -1.1237  1.9618
  310DOPC  C31042754   7.248  11.734   4.119 -0.5278 -0.4875  0.3520
  310DOPC  H10X42755   7.298  11.644   4.156  2.8333  1.2094  0.2959
  310DOPC  C31142756   7.279  11.848   4.218  0.7864  0.2079 -0.4973
  310DOPC  H11X42757   7.226  11.940   4.188 -2.2094 -1.2618 -0.1090
  310DOPC  H11Y42758   7.386  11.876   4.227  0.4469  1.3239  0.2581
  310DOPC  C31242759   7.225  11.810   4.359 -0.3011  0.4586  0.0717
  310DOPC  H12X42760   7.115  11.793   4.357 -0.5180  1.4995  1.3431
  310DOPC  H12Y42761   7.230  11.894   4.431 -0.0898 -0.2342  0.8817
  310DOPC  C31342762   7.298  11.685   4.430 -0.2173 -0.2528 -0.1519
  310DOPC  H13X42763   7.280  11.594   4.369 -0.2611 -0.1089 -0.3561
  310DOPC  H13Y42764   7.408  11.705   4.432 -0.2060 -0.3093 -0.2253
  310DOPC  C31442765   7.257  11.669   4.572  0.0558 -0.7019 -0.6951
  310DOPC  H14X42766   7.281  11.762   4.626 -0.7734  0.2426 -1.8863
  310DOPC  H14Y42767   7.148  11.658   4.589  0.3716  0.7148  3.0220
  310DOPC  C31542768   7.318  11.547   4.644  1.1147 -0.3403  0.1312
  310DOPC  H15X42769   7.428  11.563   4.637  0.8962  0.5961 -1.6990
  310DOPC  H15Y42770   7.295  11.452   4.592 -1.2999 -0.0031  0.4780
  310DOPC  C31642771   7.277  11.540   4.792  0.3873 -1.1549 -0.2002
  310DOPC  H16X42772   7.296  11.635   4.846 -1.5497 -1.1907  0.6425
  310DOPC  H16Y42773   7.166  11.534   4.800  0.2922  0.1173 -0.4476
  310DOPC  C31742774   7.338  11.422   4.863  0.3560 -0.1183  0.2713
  310DOPC  H17X42775   7.448  11.438   4.875  0.4724 -0.0988 -0.7269
  310DOPC  H17Y42776   7.305  11.425   4.969 -2.3177  3.7971 -0.4507
  310DOPC  C31842777   7.315  11.276   4.803  0.6683 -0.6310 -0.1781
  310DOPC  H18X42778   7.210  11.258   4.836 -0.5317 -0.0076 -3.3233
  310DOPC  H18Y42779   7.325  11.276   4.692 -2.2094  1.3779 -0.5343
  310DOPC  H18Z42780   7.374  11.199   4.858 -0.1640 -1.3136 -0.2229
  311DOPC     N42781   9.953   2.130   1.988  0.0625  0.0072 -0.3353
  311DOPC   C1242782   9.960   2.270   2.056 -0.3470  0.4453  0.1423
  311DOPC  H12A42783   9.954   2.347   1.981  0.4816  0.5659  0.1949
  311DOPC  H12B42784  10.059   2.285   2.097  0.0441  2.8441 -1.5086
  311DOPC   C1342785  10.080   2.116   1.909  0.0859 -0.2119 -0.9276
  311DOPC  H13A42786  10.090   2.193   1.834  1.3420  0.5386 -0.0312
  311DOPC  H13B42787  10.169   2.135   1.967 -0.9594  2.3055 -0.0531
  311DOPC  H13C42788  10.082   2.022   1.855 -0.2081 -0.1591 -1.0306
  311DOPC   C1442789   9.835   2.123   1.897 -0.6047  0.2233 -1.1818
  311DOPC  H14A42790   9.748   2.136   1.960  0.4963 -2.2882  1.0839
  311DOPC  H14B42791   9.848   2.196   1.818  0.8401  0.1896 -1.0081
  311DOPC  H14C42792   9.831   2.022   1.858  0.2852  0.5578 -2.1689
  311DOPC   C1542793   9.944   2.017   2.085 -0.3128  0.0681 -0.3967
  311DOPC  H15A42794  10.002   2.027   2.176  0.1191 -1.5890 -0.4662
  311DOPC  H15B42795   9.972   1.922   2.042 -0.1287  0.3015 -0.7956
  311DOPC  H15C42796   9.838   2.008   2.105  0.1418 -2.0925  1.3213
  311DOPC   C1142797   9.850   2.289   2.166 -0.6274  0.0456 -0.4077
  311DOPC  H11A42798   9.837   2.208   2.240 -2.7058 -1.4363 -2.2897
  311DOPC  H11B42799   9.889   2.375   2.225 -0.9452  0.2318 -0.4672
  311DOPC     P42800   9.694   2.461   2.056 -0.2842 -0.1438 -0.1759
  311DOPC   O1342801   9.565   2.472   1.984 -0.1803 -0.4014  0.3298
  311DOPC   O1442802   9.818   2.508   1.983 -0.6591  0.3936 -0.1878
  311DOPC   O1242803   9.720   2.317   2.120 -0.9236  0.4127  0.3635
  311DOPC   O1142804   9.683   2.551   2.184 -0.2371  0.6285  0.2207
  311DOPC    C142805   9.573   2.571   2.274  0.2934 -1.2207  0.1055
  311DOPC    HA42806   9.485   2.518   2.231 -1.2552  0.5175  0.9368
  311DOPC    HB42807   9.553   2.681   2.269 -1.6224 -1.5496 -0.2369
  311DOPC    C242808   9.588   2.528   2.423 -0.1897  0.0256  0.6993
  311DOPC    HS42809   9.640   2.615   2.468  2.5389 -0.0711 -1.9588
  311DOPC   O2142810   9.681   2.418   2.436  0.2099 -0.1123 -0.3477
  311DOPC   C2142811   9.763   2.424   2.543  0.2087  0.6114 -0.8089
  311DOPC   O2242812   9.778   2.522   2.617 -0.3892  0.3462  0.2599
  311DOPC   C2242813   9.826   2.282   2.560 -0.3313  0.0752 -0.1191
  311DOPC   H2R42814   9.872   2.263   2.461 -0.4571  1.0008 -0.3703
  311DOPC   H2S42815   9.740   2.212   2.564 -0.3969  0.1909  0.6992
  311DOPC    C342816   9.452   2.503   2.493 -0.1352  0.4775 -0.2294
  311DOPC    HX42817   9.416   2.401   2.466  1.5007  0.1027 -1.1510
  311DOPC    HY42818   9.375   2.566   2.443  0.6074  0.6844 -1.1395
  311DOPC   O3142819   9.447   2.514   2.637  0.2694 -0.2557  0.0675
  311DOPC   C3142820   9.471   2.405   2.716 -0.1181  0.2155  0.2464
  311DOPC   O3242821   9.514   2.297   2.678 -0.0759 -0.3610 -0.2377
  311DOPC   C3242822   9.441   2.443   2.862 -0.4519 -0.6736  0.0752
  311DOPC   H2X42823   9.518   2.520   2.886 -0.3602 -0.8551  0.3775
  311DOPC   H2Y42824   9.338   2.483   2.852  1.0332  3.2906 -1.3032
  311DOPC   C2342825   9.925   2.269   2.670 -0.2854  0.1728  0.0903
  311DOPC   H3R42826  10.003   2.348   2.665 -1.0122  0.8752 -0.7987
  311DOPC   H3S42827   9.975   2.172   2.652 -1.7980 -0.7536  0.6471
  311DOPC   C2442828   9.859   2.254   2.811 -0.0587 -0.1148  0.2512
  311DOPC   H4R42829   9.784   2.173   2.826 -1.3717  1.2703  1.5355
  311DOPC   H4S42830   9.806   2.349   2.831 -2.2289 -0.4875 -2.9714
  311DOPC   C2542831   9.971   2.252   2.918  0.7596  0.2491 -0.4513
  311DOPC   H5R42832  10.051   2.323   2.886  0.9400  0.2576  0.0199
  311DOPC   H5S42833  10.021   2.153   2.917  2.5660  1.0792  1.5942
  311DOPC   C2642834   9.917   2.292   3.046 -0.0454  0.0637 -0.0817
  311DOPC   H6R42835   9.827   2.234   3.073 -0.1898  0.3422  0.0410
  311DOPC   H6S42836   9.880   2.395   3.029 -0.7068  0.0231  0.9897
  311DOPC   C2742837  10.027   2.301   3.154  0.7999  0.0994 -0.0851
  311DOPC   H7R42838  10.117   2.360   3.125 -0.2700  1.4231 -0.8030
  311DOPC   H7S42839  10.054   2.194   3.166 -0.0171 -0.2420 -1.1284
  311DOPC   C2842840   9.976   2.362   3.285  0.1330  0.3652  0.2265
  311DOPC   H8R42841   9.966   2.472   3.267  0.9117  0.4129  0.0503
  311DOPC   H8S42842  10.055   2.368   3.362  1.3274  0.7527 -0.9855
  311DOPC   C2942843   9.853   2.293   3.343  0.2054  0.4097  0.6802
  311DOPC   H9R42844   9.759   2.297   3.286  0.2251 -2.1301  0.3414
  311DOPC  C21042845   9.870   2.211   3.448 -0.0684  0.5530  0.3484
  311DOPC  H10R42846   9.786   2.151   3.486  1.0137 -1.0180  0.3568
  311DOPC  C21142847   9.990   2.195   3.544 -0.6601 -0.3793 -0.5103
  311DOPC  H11R42848  10.016   2.290   3.596  2.8655 -0.3687 -2.0434
  311DOPC  H11S42849  10.081   2.177   3.483 -0.7470  1.7688 -1.3886
  311DOPC  C21242850   9.989   2.082   3.643 -0.2216  0.4717 -0.4519
  311DOPC  H12R42851   9.970   1.982   3.597 -0.8568 -0.4996  1.7717
  311DOPC  H12S42852   9.896   2.101   3.700 -0.6868  0.0216 -1.0354
  311DOPC  C21342853  10.115   2.071   3.731  0.4803 -0.2251  0.8193
  311DOPC  H13R42854  10.137   2.176   3.762  2.8779 -0.4605  0.0678
  311DOPC  H13S42855  10.202   2.028   3.677  0.7300  1.0226  0.1973
  311DOPC  C21442856  10.089   1.982   3.855  0.1213  0.8067 -0.7783
  311DOPC  H14R42857  10.078   1.878   3.819 -0.2889  0.2729  0.8179
  311DOPC  H14S42858   9.990   2.002   3.902  1.2899 -0.2554  2.4017
  311DOPC  C21542859  10.203   1.982   3.955 -0.6461  0.2616  0.7305
  311DOPC  H15R42860  10.248   2.083   3.968  1.0553 -0.5538  1.5782
  311DOPC  H15S42861  10.285   1.918   3.915 -0.1369  1.3656 -0.0600
  311DOPC  C21642862  10.175   1.949   4.102  0.5680  0.2843  0.2373
  311DOPC  H16R42863  10.266   1.923   4.161  0.2729 -0.3028  0.4408
  311DOPC  H16S42864  10.112   1.858   4.098  2.8734 -1.3893 -0.5074
  311DOPC  C21742865  10.107   2.061   4.180 -0.3202 -0.0801  0.0022
  311DOPC  H17R42866  10.014   2.075   4.120 -0.2957  1.3979  0.2692
  311DOPC  H17S42867  10.167   2.154   4.173 -1.4749  0.5714 -2.5477
  311DOPC  C21842868  10.083   2.028   4.331  0.7727  0.0432  0.2021
  311DOPC  H18R42869   9.987   2.075   4.361  1.6579  1.5525  0.7511
  311DOPC  H18S42870  10.165   2.062   4.397 -0.7613  0.0802  2.1687
  311DOPC  H18T42871  10.067   1.920   4.352  0.0409 -0.1394 -1.1892
  311DOPC   C3342872   9.463   2.320   2.958 -0.2620 -0.1722 -0.2460
  311DOPC   H3X42873   9.561   2.274   2.933 -0.7694 -0.8244 -1.0947
  311DOPC   H3Y42874   9.382   2.244   2.948 -2.3327  1.8959 -0.1758
  311DOPC   C3442875   9.468   2.373   3.099  0.0774 -0.4043  0.1680
  311DOPC   H4X42876   9.380   2.438   3.118  2.6449  3.6751 -0.7080
  311DOPC   H4Y42877   9.557   2.439   3.114  0.2723 -1.0670  2.4011
  311DOPC   C3542878   9.471   2.265   3.208  0.3557 -0.0922 -0.5517
  311DOPC   H5X42879   9.561   2.200   3.198 -0.1639 -0.6771 -1.6125
  311DOPC   H5Y42880   9.381   2.202   3.198 -0.0011  0.1617  0.9013
  311DOPC   C3642881   9.474   2.331   3.346 -0.0202  0.9202  0.3638
  311DOPC   H6X42882   9.574   2.377   3.363  1.4222 -1.1885 -1.7496
  311DOPC   H6Y42883   9.392   2.406   3.344 -2.0006 -1.0889 -2.1429
  311DOPC   C3742884   9.461   2.235   3.465 -0.5290 -0.0056  0.3246
  311DOPC   H7X42885   9.399   2.145   3.450  0.0731 -0.3069 -0.4229
  311DOPC   H7Y42886   9.562   2.195   3.488 -0.4123  0.1959  0.1634
  311DOPC   C3842887   9.411   2.314   3.584 -0.0592 -0.0442 -0.1732
  311DOPC   H8X42888   9.310   2.354   3.562 -0.0385 -0.5428 -1.2448
  311DOPC   H8Y42889   9.467   2.408   3.604  0.6771 -0.7487  1.2220
  311DOPC   C3942890   9.417   2.232   3.713  0.0740 -0.2568 -0.0467
  311DOPC   H9X42891   9.339   2.157   3.736  1.1569 -1.1451  0.8001
  311DOPC  C31042892   9.514   2.242   3.804  0.3422  0.2464 -0.1277
  311DOPC  H10X42893   9.508   2.166   3.884 -2.3978 -0.4210 -0.8850
  311DOPC  C31142894   9.636   2.334   3.802 -0.0904  0.4403 -0.4262
  311DOPC  H11X42895   9.615   2.435   3.844  0.1970  0.2293  0.2272
  311DOPC  H11Y42896   9.666   2.349   3.696  0.1424  0.1754 -0.3988
  311DOPC  C31242897   9.741   2.270   3.900  0.5166 -0.0180 -0.5553
  311DOPC  H12X42898   9.750   2.161   3.882 -1.3398 -0.1497 -0.8796
  311DOPC  H12Y42899   9.708   2.272   4.006  0.0661  3.0942 -0.6462
  311DOPC  C31342900   9.891   2.323   3.899 -0.1081 -0.1165  0.1828
  311DOPC  H13X42901   9.960   2.248   3.944  1.5170  0.8970 -0.5296
  311DOPC  H13Y42902   9.911   2.335   3.790  0.7871  0.2214  0.3777
  311DOPC  C31442903   9.914   2.461   3.958  0.1613  0.5928  0.4811
  311DOPC  H14X42904   9.841   2.534   3.917 -0.1971 -1.2101 -2.3255
  311DOPC  H14Y42905   9.898   2.453   4.068 -3.7768 -1.5056 -0.0544
  311DOPC  C31542906  10.056   2.511   3.940  0.5023 -0.1539  0.0991
  311DOPC  H15X42907  10.071   2.618   3.967 -4.2327  0.7529 -0.0800
  311DOPC  H15Y42908  10.082   2.518   3.832  0.9944  2.1756  0.3035
  311DOPC  C31642909  10.161   2.427   4.016 -0.1901  0.0162  0.2229
  311DOPC  H16X42910  10.150   2.318   4.001 -2.3599  0.3662 -1.3162
  311DOPC  H16Y42911  10.263   2.455   3.982  2.0214 -2.4796  4.1224
  311DOPC  C31742912  10.167   2.471   4.163  0.2670  0.1816 -1.0156
  311DOPC  H17X42913  10.153   2.581   4.162 -0.2796  0.1130 -1.9627
  311DOPC  H17Y42914  10.082   2.423   4.216  0.2247  0.8961 -0.4239
  311DOPC  C31842915  10.298   2.445   4.238 -0.0524 -0.0923 -0.0548
  311DOPC  H18X42916  10.287   2.453   4.348 -2.6038 -0.9788 -0.1806
  311DOPC  H18Y42917  10.335   2.342   4.219  0.7834  0.0155  0.9033
  311DOPC  H18Z42918  10.370   2.525   4.208 -1.0521  0.8763  0.0695
  312DOPC     N42919   4.008   9.109   1.812 -0.0889 -0.0971  0.6300
  312DOPC   C1242920   3.960   9.039   1.940  0.2612 -0.4007  0.3068
  312DOPC  H12A42921   3.974   8.933   1.925  0.6439 -0.3240  0.0925
  312DOPC  H12B42922   3.856   9.055   1.961  0.0218 -1.7361  0.2315
  312DOPC   C1342923   4.150   9.065   1.791  0.2076  0.4194 -0.6975
  312DOPC  H13A42924   4.202   9.119   1.713  0.5931  0.4058 -0.4513
  312DOPC  H13B42925   4.201   9.085   1.884  1.2005  0.8050 -1.3069
  312DOPC  H13C42926   4.148   8.958   1.775 -0.0901 -0.0572  2.1524
  312DOPC   C1442927   3.991   9.254   1.828 -0.6884  0.2844  0.3481
  312DOPC  H14A42928   3.890   9.289   1.815 -0.0661  1.9942 -0.2912
  312DOPC  H14B42929   4.041   9.286   1.918  2.6337  2.6253 -2.0812
  312DOPC  H14C42930   4.047   9.309   1.753  1.4331  0.1677  1.7433
  312DOPC   C1542931   3.930   9.058   1.695  0.1473 -0.2738 -0.3136
  312DOPC  H15A42932   3.975   9.099   1.605  3.1280 -1.9467  0.2954
  312DOPC  H15B42933   3.831   9.101   1.698  0.2741 -0.0410  2.1134
  312DOPC  H15C42934   3.931   8.951   1.681  0.3505 -0.3294  0.1153
  312DOPC   C1142935   4.022   9.086   2.073  0.0414 -0.4979 -0.4124
  312DOPC  H11A42936   4.004   9.195   2.085  2.3606 -0.2565  1.7917
  312DOPC  H11B42937   3.971   9.028   2.153 -0.3787  1.4535  0.8054
  312DOPC     P42938   4.252   8.955   2.129 -0.3828  0.4199  0.0284
  312DOPC   O1342939   4.393   8.984   2.095 -0.4746  0.0430  0.0029
  312DOPC   O1442940   4.196   8.819   2.095  0.2505  0.0629 -0.3148
  312DOPC   O1242941   4.168   9.077   2.072 -0.2866  0.4373 -0.3521
  312DOPC   O1142942   4.238   8.963   2.289  0.0454 -0.8058 -0.2095
  312DOPC    C142943   4.261   9.094   2.354 -0.7430 -0.1188 -0.2333
  312DOPC    HA42944   4.168   9.154   2.353  0.1320  1.3212  0.6742
  312DOPC    HB42945   4.344   9.149   2.304 -1.9968  0.1873 -2.0886
  312DOPC    C242946   4.290   9.082   2.507 -0.3201 -0.0607 -0.1565
  312DOPC    HS42947   4.395   9.047   2.519  0.5980  1.9220 -1.7920
  312DOPC   O2142948   4.183   9.003   2.562  0.3051  0.5559  0.2676
  312DOPC   C2142949   4.221   8.935   2.669  0.2354 -0.4098  0.0249
  312DOPC   O2242950   4.334   8.947   2.716  0.2195 -0.3070  0.0407
  312DOPC   C2242951   4.115   8.831   2.708  0.0738  0.5377 -0.6006
  312DOPC   H2R42952   4.105   8.751   2.632 -0.2669  1.1122 -1.1724
  312DOPC   H2S42953   4.016   8.882   2.708  0.4090  1.2307  0.2116
  312DOPC    C342954   4.280   9.226   2.576 -0.6450 -0.6193  0.7871
  312DOPC    HX42955   4.185   9.276   2.547  0.7831  0.7575 -1.8575
  312DOPC    HY42956   4.361   9.281   2.523 -1.2648 -1.2220 -0.8572
  312DOPC   O3142957   4.310   9.233   2.721  0.1761 -0.1466 -0.1991
  312DOPC   C3142958   4.431   9.222   2.750 -0.0259  0.3918 -0.3357
  312DOPC   O3242959   4.527   9.216   2.675 -0.1527 -0.4016 -0.3648
  312DOPC   C3242960   4.441   9.210   2.901 -0.0230  0.2292 -0.4711
  312DOPC   H2X42961   4.389   9.295   2.950 -0.0811  0.3438 -0.7279
  312DOPC   H2Y42962   4.379   9.120   2.918  1.6797 -1.5092 -2.7561
  312DOPC   C2342963   4.132   8.776   2.845 -0.8494  0.8375  0.0553
  312DOPC   H3R42964   4.232   8.726   2.839 -1.9479 -1.3240 -1.6700
  312DOPC   H3S42965   4.056   8.700   2.870 -0.4929  1.0558  1.9971
  312DOPC   C2442966   4.125   8.879   2.953 -0.0005 -0.3281 -0.5175
  312DOPC   H4R42967   4.023   8.921   2.969  0.1651  0.2743 -0.9926
  312DOPC   H4S42968   4.186   8.965   2.919 -0.8466  0.8431  0.7922
  312DOPC   C2542969   4.183   8.817   3.073 -0.0333  0.1095  0.9621
  312DOPC   H5R42970   4.288   8.785   3.055  0.1234  0.4057  1.3189
  312DOPC   H5S42971   4.122   8.732   3.110 -2.8090  2.4146  2.1056
  312DOPC   C2642972   4.178   8.906   3.200 -0.3336 -1.1589  0.7298
  312DOPC   H6R42973   4.083   8.960   3.180  0.1152 -0.9904 -1.1364
  312DOPC   H6S42974   4.247   8.993   3.191 -1.7278 -0.1638 -1.0372
  312DOPC   C2742975   4.186   8.837   3.333 -0.0673  0.7012 -0.3209
  312DOPC   H7R42976   4.290   8.814   3.365 -0.3476 -1.3974 -0.7802
  312DOPC   H7S42977   4.138   8.737   3.331  2.2248 -0.5223  1.1521
  312DOPC   C2842978   4.131   8.925   3.452  0.4042  0.2908  0.1162
  312DOPC   H8R42979   4.034   8.965   3.415  0.4750  1.5204  1.1502
  312DOPC   H8S42980   4.197   9.015   3.459 -0.9228  1.1888  2.5352
  312DOPC   C2942981   4.109   8.865   3.590 -0.3924 -0.4488 -0.3639
  312DOPC   H9R42982   4.196   8.818   3.638 -0.9861  0.1145  1.3119
  312DOPC  C21042983   4.000   8.858   3.673  0.6643  0.6219  0.3120
  312DOPC  H10R42984   4.005   8.818   3.775  0.7042 -0.6609 -0.1741
  312DOPC  C21142985   3.861   8.914   3.644  0.0221  0.3249  0.4420
  312DOPC  H11R42986   3.840   8.928   3.536  1.9046  0.8664  0.0997
  312DOPC  H11S42987   3.855   9.016   3.687 -2.5969 -0.5535  2.4350
  312DOPC  C21242988   3.751   8.845   3.728 -0.3141  0.0643 -0.0077
  312DOPC  H12R42989   3.746   8.735   3.712 -0.0724 -0.4488  2.8811
  312DOPC  H12S42990   3.661   8.897   3.690 -0.3962  0.0152  0.1203
  312DOPC  C21342991   3.740   8.861   3.883  0.1656 -0.6219  0.5082
  312DOPC  H13R42992   3.739   8.971   3.898  0.6284 -0.1479 -2.3245
  312DOPC  H13S42993   3.830   8.839   3.944  0.3788 -1.5135 -0.0960
  312DOPC  C21442994   3.614   8.822   3.956 -0.4332 -0.1046  0.1017
  312DOPC  H14R42995   3.531   8.884   3.918  1.0567  1.9449  0.0323
  312DOPC  H14S42996   3.625   8.851   4.062  0.8127 -2.7282  0.7748
  312DOPC  C21542997   3.590   8.671   3.950  0.3764  0.1500 -0.1438
  312DOPC  H15R42998   3.609   8.627   3.850  2.0821 -2.2403  1.1389
  312DOPC  H15S42999   3.483   8.649   3.965  0.6545 -1.0383  0.1398
  312DOPC  C21643000   3.676   8.607   4.056 -0.4662  0.2817  0.4072
  312DOPC  H16R43001   3.668   8.665   4.150 -0.5298 -0.9535  1.1901
  312DOPC  H16S43002   3.783   8.616   4.030 -0.3289 -1.3926  0.2620
  312DOPC  C21743003   3.659   8.452   4.081 -0.0355 -0.4157  0.1446
  312DOPC  H17R43004   3.705   8.429   4.179  0.7685 -1.6010 -0.4898
  312DOPC  H17S43005   3.706   8.389   4.002 -0.4977 -0.1241 -0.3708
  312DOPC  C21843006   3.517   8.408   4.101 -0.4303 -0.7129 -0.1470
  312DOPC  H18R43007   3.465   8.477   4.171 -0.1054  1.5489 -1.9795
  312DOPC  H18S43008   3.520   8.307   4.147 -0.9860 -0.2520  0.9434
  312DOPC  H18T43009   3.464   8.405   4.004 -1.4764 -4.4058  0.3996
  312DOPC   C3343010   4.588   9.186   2.958  0.1135  0.2702  0.2861
  312DOPC   H3X43011   4.645   9.281   2.949 -0.0774  0.3514 -0.0792
  312DOPC   H3Y43012   4.640   9.105   2.901 -0.9836 -0.3995  0.2167
  312DOPC   C3443013   4.584   9.122   3.100  0.3646  0.6213  0.2715
  312DOPC   H4X43014   4.683   9.084   3.131  0.1333 -0.6910 -0.4901
  312DOPC   H4Y43015   4.517   9.033   3.093  0.6578  0.4825 -0.9921
  312DOPC   C3543016   4.520   9.203   3.204  0.2275  0.2145 -0.5072
  312DOPC   H5X43017   4.429   9.243   3.154 -0.7448 -1.2714 -0.0065
  312DOPC   H5Y43018   4.589   9.283   3.239  2.6511 -2.0057  0.0471
  312DOPC   C3643019   4.461   9.127   3.329 -0.4868 -0.2132 -0.2303
  312DOPC   H6X43020   4.385   9.198   3.367  0.6948  2.2058 -2.1010
  312DOPC   H6Y43021   4.423   9.031   3.289  0.4603  0.2728 -2.4976
  312DOPC   C3743022   4.561   9.082   3.437  0.0392  0.1651 -0.3699
  312DOPC   H7X43023   4.637   9.018   3.388 -0.8586 -1.3756  0.1799
  312DOPC   H7Y43024   4.618   9.167   3.481  1.6556 -0.4781 -1.1553
  312DOPC   C3843025   4.501   8.991   3.549  0.7800 -0.0359 -0.3402
  312DOPC   H8X43026   4.589   8.958   3.609  0.1682 -3.2966 -1.0797
  312DOPC   H8Y43027   4.443   8.905   3.511 -0.9851  0.4780  1.0129
  312DOPC   C3943028   4.409   9.067   3.648 -0.6744 -0.5452  0.3296
  312DOPC   H9X43029   4.393   9.174   3.628  0.8024 -0.5862 -1.3278
  312DOPC  C31043030   4.343   9.025   3.757  0.6879 -0.0134  1.0875
  312DOPC  H10X43031   4.293   9.099   3.821 -1.9837 -0.3371 -0.4851
  312DOPC  C31143032   4.356   8.887   3.813 -0.0658 -0.0471 -0.0489
  312DOPC  H11X43033   4.410   8.816   3.747  1.9757  1.1926  0.2202
  312DOPC  H11Y43034   4.262   8.838   3.847  0.0397  0.7296  1.4423
  312DOPC  C31243035   4.438   8.892   3.948 -0.6335 -0.4045  0.1123
  312DOPC  H12X43036   4.538   8.940   3.940 -1.0805  0.5711  0.2883
  312DOPC  H12Y43037   4.457   8.790   3.987 -0.5291 -0.3794  0.1277
  312DOPC  C31343038   4.365   8.957   4.066 -0.0742  0.2460  0.3836
  312DOPC  H13X43039   4.367   9.068   4.061 -0.5487  0.2507  0.2164
  312DOPC  H13Y43040   4.259   8.923   4.069 -0.1144  0.3356  0.0632
  312DOPC  C31443041   4.417   8.921   4.206 -0.3465 -0.2508 -0.6249
  312DOPC  H14X43042   4.339   8.956   4.278  0.0132  0.3335 -0.5105
  312DOPC  H14Y43043   4.427   8.812   4.224 -2.5566 -0.1962  1.6314
  312DOPC  C31543044   4.559   8.973   4.218  0.3551 -0.7943  0.1677
  312DOPC  H15X43045   4.562   9.084   4.213  1.1708 -0.6814  2.0983
  312DOPC  H15Y43046   4.617   8.937   4.130 -0.7321 -2.3711  0.0406
  312DOPC  C31643047   4.639   8.939   4.344  0.5475  0.7880  0.5034
  312DOPC  H16X43048   4.731   9.001   4.356  0.1341  1.2781  1.1996
  312DOPC  H16Y43049   4.576   8.956   4.433 -0.0280  0.8522  0.0867
  312DOPC  C31743050   4.682   8.788   4.347 -0.7646 -0.6314 -0.0117
  312DOPC  H17X43051   4.593   8.721   4.346 -0.8859 -0.5228  1.2109
  312DOPC  H17Y43052   4.745   8.770   4.258  0.5522  1.0060  0.5276
  312DOPC  C31843053   4.762   8.761   4.481 -0.2536 -0.0357  0.2181
  312DOPC  H18X43054   4.781   8.652   4.488  1.6546  0.1187 -1.6085
  312DOPC  H18Y43055   4.843   8.837   4.487  0.2385 -0.4261 -1.1441
  312DOPC  H18Z43056   4.708   8.786   4.575 -2.4398 -0.0101 -0.9833
  313DOPC     N43057  12.055   8.526   1.580  0.2939  0.3887  0.2627
  313DOPC   C1243058  11.945   8.578   1.665  0.2864  0.6789  0.4472
  313DOPC  H12A43059  11.865   8.506   1.671 -0.5200  1.1921 -2.5887
  313DOPC  H12B43060  11.902   8.670   1.627 -1.0654 -0.3618 -0.6579
  313DOPC   C1343061  11.997   8.498   1.444 -0.2004 -0.9320 -0.0471
  313DOPC  H13A43062  12.075   8.487   1.371 -1.6504 -0.0756 -1.7896
  313DOPC  H13B43063  11.931   8.413   1.437 -0.6539 -0.5263 -0.7752
  313DOPC  H13C43064  11.945   8.584   1.404 -1.9951 -2.6218 -1.5211
  313DOPC   C1443065  12.114   8.399   1.629 -0.1192 -0.2290 -1.0323
  313DOPC  H14A43066  12.034   8.338   1.670  1.6180 -0.4704  2.3097
  313DOPC  H14B43067  12.154   8.343   1.546 -0.2523  0.9071 -1.8798
  313DOPC  H14C43068  12.180   8.421   1.711 -1.2527  0.3495 -0.2432
  313DOPC   C1543069  12.164   8.626   1.560  0.6635  0.3599  0.1428
  313DOPC  H15A43070  12.208   8.669   1.649  2.8293 -0.3819 -0.5015
  313DOPC  H15B43071  12.143   8.711   1.497  0.6990 -0.6759 -1.3113
  313DOPC  H15C43072  12.237   8.565   1.509 -1.2040 -1.6376 -0.2670
  313DOPC   C1143073  11.987   8.611   1.809 -0.3881  0.0922 -0.7893
  313DOPC  H11A43074  11.900   8.613   1.880  0.1118  0.7331 -0.1841
  313DOPC  H11B43075  12.055   8.527   1.838  0.3311  0.5750 -1.0670
  313DOPC     P43076  11.997   8.876   1.803 -0.2830 -0.2574  0.4380
  313DOPC   O1343077  11.850   8.862   1.780 -0.0809 -0.0286  1.2214
  313DOPC   O1443078  12.072   8.951   1.700 -0.1831  0.3204 -0.1799
  313DOPC   O1243079  12.062   8.733   1.819  0.1107 -0.3527 -0.0807
  313DOPC   O1143080  12.020   8.935   1.948 -0.2850  0.5757  0.3955
  313DOPC    C143081  12.036   8.848   2.063 -0.0944  0.1876  0.4731
  313DOPC    HA43082  12.125   8.784   2.046 -0.3971  0.2323 -1.6058
  313DOPC    HB43083  11.952   8.775   2.062 -0.2333  0.3464  0.6292
  313DOPC    C243084  12.039   8.934   2.191 -0.2331  0.4637 -0.8144
  313DOPC    HS43085  12.030   8.858   2.271  0.8509  2.6132  1.4831
  313DOPC   O2143086  11.936   9.031   2.207 -0.2681 -0.2720 -0.2246
  313DOPC   C2143087  11.809   8.982   2.208  0.1524  0.2857  0.4414
  313DOPC   O2243088  11.782   8.865   2.195 -0.2498  0.2771  0.4473
  313DOPC   C2243089  11.715   9.106   2.229  0.1869  0.2507 -0.0361
  313DOPC   H2R43090  11.669   9.130   2.131  0.5494 -1.9534 -0.7950
  313DOPC   H2S43091  11.775   9.197   2.251  0.0669  0.7491 -1.6836
  313DOPC    C343092  12.187   8.994   2.213  0.3779  0.2886 -0.7329
  313DOPC    HX43093  12.218   9.050   2.122 -0.7784  1.3722 -0.4847
  313DOPC    HY43094  12.258   8.909   2.207 -0.0434 -0.0388 -1.2319
  313DOPC   O3143095  12.205   9.059   2.345 -0.3432 -0.2967 -0.5670
  313DOPC   C3143096  12.191   9.186   2.351  0.2034 -0.5087  0.6356
  313DOPC   O3243097  12.161   9.262   2.256 -0.5069  0.4286  0.0749
  313DOPC   C3243098  12.212   9.241   2.490  0.0137  0.5011 -0.3231
  313DOPC   H2X43099  12.117   9.245   2.549  0.1460 -2.6416  0.3193
  313DOPC   H2Y43100  12.282   9.172   2.543 -0.4447 -2.8676 -3.6677
  313DOPC   C2343101  11.615   9.074   2.345  0.2330 -0.4162 -0.1419
  313DOPC   H3R43102  11.549   8.991   2.313 -1.1781  0.3440  0.7189
  313DOPC   H3S43103  11.542   9.156   2.359  1.0103  0.3307 -0.4014
  313DOPC   C2443104  11.668   9.021   2.484 -0.4048  1.3442  0.3622
  313DOPC   H4R43105  11.716   8.923   2.467 -0.4167  1.4074 -0.0466
  313DOPC   H4S43106  11.576   9.024   2.547 -0.1293 -0.1046  0.8573
  313DOPC   C2543107  11.759   9.113   2.557  0.0434  0.0254 -0.0947
  313DOPC   H5R43108  11.719   9.215   2.573 -1.8875 -0.9241  1.4073
  313DOPC   H5S43109  11.851   9.114   2.494 -1.3205 -0.0846 -2.2142
  313DOPC   C2643110  11.796   9.061   2.691  0.1925  0.7467  0.4681
  313DOPC   H6R43111  11.871   9.122   2.745  0.2889 -0.0307  1.2498
  313DOPC   H6S43112  11.826   8.955   2.675  2.0099  1.5123 -1.5788
  313DOPC   C2743113  11.676   9.050   2.794  0.2099 -0.0647 -1.1243
  313DOPC   H7R43114  11.606   8.978   2.747 -2.0307  3.7596 -4.3651
  313DOPC   H7S43115  11.618   9.144   2.786 -1.8658 -1.0443  1.1487
  313DOPC   C2843116  11.722   8.996   2.938  0.3724  0.1867  0.5594
  313DOPC   H8R43117  11.802   8.918   2.933  0.2557  0.0485  0.8314
  313DOPC   H8S43118  11.642   8.950   2.998  0.5444 -1.9733 -0.7458
  313DOPC   C2943119  11.754   9.116   3.024 -0.3150  0.2931 -0.2943
  313DOPC   H9R43120  11.681   9.199   3.026 -1.8842 -1.0373 -0.5186
  313DOPC  C21043121  11.875   9.131   3.088 -0.1951  0.0929  0.0177
  313DOPC  H10R43122  11.890   9.222   3.149  1.4437 -0.8995  1.1707
  313DOPC  C21143123  11.990   9.039   3.074  0.5654  0.5617 -0.0856
  313DOPC  H11R43124  11.949   8.937   3.057 -0.2388  0.6834  1.0210
  313DOPC  H11S43125  12.043   9.042   3.171  1.5654  1.7929 -0.6492
  313DOPC  C21243126  12.098   9.067   2.971  0.4171  0.1519 -0.0564
  313DOPC  H12R43127  12.128   9.174   2.976 -0.0413  0.3387 -0.9838
  313DOPC  H12S43128  12.074   9.063   2.862  0.5137  1.8126 -0.1706
  313DOPC  C21343129  12.217   8.972   2.982 -0.1610  0.1008 -0.3764
  313DOPC  H13R43130  12.187   8.865   2.982  0.5724 -0.1145 -1.3241
  313DOPC  H13S43131  12.257   9.001   3.082  0.1083 -0.4971 -0.3090
  313DOPC  C21443132  12.330   9.009   2.881  0.2886  0.3575 -0.0539
  313DOPC  H14R43133  12.434   8.987   2.915 -0.2997  0.2503  1.8108
  313DOPC  H14S43134  12.324   9.119   2.862  0.0438 -0.0539 -2.6294
  313DOPC  C21543135  12.302   8.938   2.749  0.7403 -0.0687 -0.3889
  313DOPC  H15R43136  12.372   8.984   2.676  1.5538 -1.4154 -0.4955
  313DOPC  H15S43137  12.192   8.952   2.738  0.4141 -1.1397  1.1576
  313DOPC  C21643138  12.347   8.794   2.748  0.0421  0.6850 -0.0242
  313DOPC  H16R43139  12.284   8.715   2.794  1.2478 -1.3267 -1.7259
  313DOPC  H16S43140  12.442   8.788   2.804 -0.6885 -2.5139  1.0678
  313DOPC  C21743141  12.375   8.749   2.598 -0.7576  0.5815  0.0366
  313DOPC  H17R43142  12.428   8.824   2.536  0.2419 -0.7536 -0.8019
  313DOPC  H17S43143  12.274   8.740   2.552 -1.0327  0.6079  0.6340
  313DOPC  C21843144  12.452   8.616   2.595  0.2298 -0.5001  0.0298
  313DOPC  H18R43145  12.447   8.571   2.493 -1.4105 -0.1914 -0.0552
  313DOPC  H18S43146  12.400   8.532   2.645  0.4508  0.3914  1.8220
  313DOPC  H18T43147  12.558   8.633   2.626 -0.1837  4.1153 -0.4376
  313DOPC   C3343148  12.255   9.388   2.479 -0.1461 -0.4673 -0.7537
  313DOPC   H3X43149  12.177   9.454   2.436 -0.6063 -0.6624 -0.2422
  313DOPC   H3Y43150  12.334   9.394   2.401 -0.4170 -0.9640 -1.0668
  313DOPC   C3443151  12.300   9.441   2.620  0.7863  0.4573 -0.3032
  313DOPC   H4X43152  12.378   9.372   2.658 -0.5929 -1.3757 -0.6524
  313DOPC   H4Y43153  12.213   9.432   2.688  1.7057  1.9839  1.1552
  313DOPC   C3543154  12.353   9.580   2.620  0.8814 -0.0566  0.2236
  313DOPC   H5X43155  12.267   9.645   2.593  0.3721 -1.3386 -1.4204
  313DOPC   H5Y43156  12.429   9.585   2.538 -2.4595 -0.2850 -3.1599
  313DOPC   C3643157  12.419   9.605   2.756  0.1466 -0.5309 -0.0130
  313DOPC   H6X43158  12.347   9.573   2.835  0.5875  1.3276  1.2237
  313DOPC   H6Y43159  12.518   9.559   2.774  0.9629  1.5885  1.3355
  313DOPC   C3743160  12.439   9.757   2.778 -0.0235  0.2439 -0.0231
  313DOPC   H7X43161  12.495   9.800   2.692  0.0200  1.2223  0.4851
  313DOPC   H7Y43162  12.340   9.807   2.776  0.1380  0.5380 -1.0263
  313DOPC   C3843163  12.511   9.785   2.902 -0.5616  0.0544  0.5458
  313DOPC   H8X43164  12.613   9.744   2.884 -1.3863 -2.8904  1.9141
  313DOPC   H8Y43165  12.477   9.730   2.993  1.2689 -2.1730 -0.0211
  313DOPC   C3943166  12.511   9.931   2.917 -0.5431  0.5670 -0.0987
  313DOPC   H9X43167  12.567   9.983   2.839 -0.6310  0.6507 -0.1056
  313DOPC  C31043168  12.437  10.005   2.997 -0.8874  0.0924 -0.4316
  313DOPC  H10X43169  12.456  10.113   3.000  0.8807 -0.2021  0.2678
  313DOPC  C31143170  12.344   9.960   3.104  0.0306 -0.4237 -0.1879
  313DOPC  H11X43171  12.388   9.865   3.142  0.9569 -0.3088 -0.9610
  313DOPC  H11Y43172  12.239   9.948   3.071 -0.1223  0.2222  0.0628
  313DOPC  C31243173  12.363  10.059   3.226 -0.4919  0.1248  0.1612
  313DOPC  H12X43174  12.336  10.164   3.200  0.4868  0.6724  1.2680
  313DOPC  H12Y43175  12.471  10.065   3.250 -0.5133  2.2315 -0.0672
  313DOPC  C31343176  12.276  10.012   3.346 -0.0749 -0.1485 -0.3413
  313DOPC  H13X43177  12.174  10.053   3.332  0.7861  1.5521 -2.0112
  313DOPC  H13Y43178  12.264   9.902   3.345  0.5926 -0.2215 -0.6755
  313DOPC  C31443179  12.323  10.061   3.490  0.1901 -0.3053  0.0014
  313DOPC  H14X43180  12.408   9.995   3.516  0.4887  0.3838  0.8324
  313DOPC  H14Y43181  12.350  10.169   3.494 -2.2666  0.5108 -2.3123
  313DOPC  C31543182  12.210  10.041   3.591  0.3711 -0.1514 -0.2010
  313DOPC  H15X43183  12.188   9.932   3.587  0.8253 -0.2202 -1.2276
  313DOPC  H15Y43184  12.111  10.089   3.576  0.5516 -0.1387 -1.4791
  313DOPC  C31643185  12.256  10.090   3.732 -0.7046  0.1675  0.6488
  313DOPC  H16X43186  12.362  10.059   3.746 -0.9269 -1.6256 -1.0590
  313DOPC  H16Y43187  12.245  10.200   3.733 -0.8976  0.2413 -2.0903
  313DOPC  C31743188  12.158  10.038   3.844 -0.3685 -0.3397  0.5554
  313DOPC  H17X43189  12.050  10.053   3.823 -0.3929 -1.1278  0.0842
  313DOPC  H17Y43190  12.186   9.931   3.851 -0.1384 -0.2075  1.7352
  313DOPC  C31843191  12.193  10.103   3.981 -0.0392  0.5013  0.8854
  313DOPC  H18X43192  12.303  10.112   3.992  0.5689 -0.5478 -2.8146
  313DOPC  H18Y43193  12.136  10.196   3.998 -2.4238 -0.9067  1.0727
  313DOPC  H18Z43194  12.141  10.035   4.051 -4.4136  0.8612 -1.6273
  314DOPC     N43195  12.354   6.200   1.628  0.0896 -0.0919  0.1331
  314DOPC   C1243196  12.491   6.205   1.698  0.3096 -0.2758  0.6094
  314DOPC  H12A43197  12.488   6.302   1.745 -0.1046  0.1393 -0.2322
  314DOPC  H12B43198  12.575   6.215   1.631 -0.3426 -0.6579 -0.2846
  314DOPC   C1343199  12.334   6.075   1.550  0.1761  0.5727  0.1989
  314DOPC  H13A43200  12.424   6.055   1.493 -0.3485  0.0602 -0.4708
  314DOPC  H13B43201  12.326   5.980   1.601  1.0796  0.5738  0.3722
  314DOPC  H13C43202  12.257   6.082   1.475  1.7069  0.3052 -1.4577
  314DOPC   C1443203  12.340   6.310   1.527  0.5090  0.0059  0.6054
  314DOPC  H14A43204  12.271   6.280   1.450  0.7924  1.1423 -0.1136
  314DOPC  H14B43205  12.300   6.402   1.568  2.2898  0.9460  0.3413
  314DOPC  H14C43206  12.433   6.338   1.480 -0.0512  0.1453 -0.4512
  314DOPC   C1543207  12.246   6.227   1.727  0.1670  0.5414 -0.0632
  314DOPC  H15A43208  12.239   6.147   1.800  2.2479 -0.8199 -1.2675
  314DOPC  H15B43209  12.156   6.216   1.668  0.6487 -0.1415 -0.6840
  314DOPC  H15C43210  12.256   6.323   1.775  2.6421  0.5011 -0.3792
  314DOPC   C1143211  12.517   6.099   1.801 -0.3657  0.4944  0.0130
  314DOPC  H11A43212  12.598   6.126   1.871  0.2630 -0.5873 -0.2781
  314DOPC  H11B43213  12.422   6.090   1.859  0.9157 -2.0811  1.9019
  314DOPC     P43214  12.686   5.943   1.656  0.0618 -0.0067  0.3501
  314DOPC   O1343215  12.727   6.058   1.570  0.3315 -0.8269 -0.0785
  314DOPC   O1443216  12.667   5.816   1.587 -0.1149 -0.4920 -0.3948
  314DOPC   O1243217  12.549   5.978   1.730 -0.5871  0.3792  0.1863
  314DOPC   O1143218  12.792   5.922   1.772  0.0596 -0.3444  0.8404
  314DOPC    C143219  12.806   5.807   1.856  0.3000 -0.5117 -0.2127
  314DOPC    HA43220  12.912   5.788   1.883  0.6904  1.9056  0.1473
  314DOPC    HB43221  12.764   5.716   1.808  1.4527 -0.9198 -0.4797
  314DOPC    C243222  12.729   5.833   1.982  0.1013 -0.9047 -0.2508
  314DOPC    HS43223  12.628   5.868   1.953 -0.8724 -3.1959  0.1859
  314DOPC   O2143224  12.809   5.926   2.063  0.2776 -0.1164 -0.4063
  314DOPC   C2143225  12.744   5.993   2.151  0.0280 -0.6727 -0.3167
  314DOPC   O2243226  12.623   5.993   2.178 -0.5284 -0.5653 -0.3543
  314DOPC   C2243227  12.837   6.077   2.213 -0.3199 -0.2462 -0.2969
  314DOPC   H2R43228  12.862   6.153   2.136 -3.2629  0.1359 -0.9816
  314DOPC   H2S43229  12.926   6.021   2.249 -0.2949  0.2135  0.3814
  314DOPC    C343230  12.714   5.692   2.054 -0.0066 -0.1624  0.1325
  314DOPC    HX43231  12.797   5.622   2.032 -2.5931 -3.5497  0.2325
  314DOPC    HY43232  12.637   5.638   1.994  0.3404  0.1086 -0.5652
  314DOPC   O3143233  12.689   5.702   2.197 -0.3551  0.2050  0.0373
  314DOPC   C3143234  12.560   5.713   2.219  0.1237  0.1030 -0.5672
  314DOPC   O3243235  12.468   5.717   2.142  0.6191  0.0248  0.7161
  314DOPC   C3243236  12.547   5.702   2.368  0.0087 -0.0904  0.1056
  314DOPC   H2X43237  12.616   5.778   2.410  1.7615 -1.1166 -0.8229
  314DOPC   H2Y43238  12.454   5.739   2.418 -0.3000 -0.1865 -0.3936
  314DOPC   C2343239  12.788   6.155   2.341 -0.0807  0.9177 -0.4573
  314DOPC   H3R43240  12.714   6.236   2.325  0.4932  1.4996 -0.1714
  314DOPC   H3S43241  12.883   6.201   2.375 -0.3477 -0.0363  1.8388
  314DOPC   C2443242  12.741   6.068   2.458 -0.0654  0.1534 -0.5058
  314DOPC   H4R43243  12.654   6.002   2.436 -0.7160  0.9523 -0.3797
  314DOPC   H4S43244  12.697   6.138   2.532 -3.4400 -3.1319  0.9328
  314DOPC   C2543245  12.830   5.971   2.521  0.3528  0.3868  0.4601
  314DOPC   H5R43246  12.927   6.024   2.540 -0.0324  0.8341  1.2381
  314DOPC   H5S43247  12.856   5.900   2.440 -3.0426 -0.6888  0.1838
  314DOPC   C2643248  12.767   5.911   2.650 -0.0849  0.1402 -0.0068
  314DOPC   H6R43249  12.713   5.821   2.613  0.8945 -0.3319 -0.3551
  314DOPC   H6S43250  12.697   5.977   2.704 -0.8699 -1.2078  0.6798
  314DOPC   C2743251  12.869   5.864   2.758  0.5024 -0.1778 -0.2950
  314DOPC   H7R43252  12.946   5.798   2.713 -0.6837 -0.8108 -1.4800
  314DOPC   H7S43253  12.816   5.819   2.844 -0.6120  1.3539 -0.1369
  314DOPC   C2843254  12.955   5.981   2.826 -0.0368  0.8464  0.7218
  314DOPC   H8R43255  12.995   6.042   2.743  1.5184  0.5396  1.2083
  314DOPC   H8S43256  13.043   5.934   2.875 -0.5818 -1.4761 -0.3701
  314DOPC   C2943257  12.874   6.065   2.920  0.7465 -0.0971 -0.2916
  314DOPC   H9R43258  12.793   6.130   2.882  0.0903 -1.3019 -1.0189
  314DOPC  C21043259  12.874   6.047   3.056  0.3130  0.4694  0.7757
  314DOPC  H10R43260  12.813   6.113   3.120 -0.6894  0.7748 -0.4590
  314DOPC  C21143261  12.965   5.959   3.131 -0.3132  0.9201  0.4527
  314DOPC  H11R43262  13.063   6.011   3.122  0.0997 -0.0261 -0.7349
  314DOPC  H11S43263  12.977   5.861   3.081  0.7954  2.0738 -1.6622
  314DOPC  C21243264  12.925   5.930   3.274 -0.2215 -0.1224 -0.1980
  314DOPC  H12R43265  12.828   5.878   3.284 -0.0718 -0.5171 -0.7083
  314DOPC  H12S43266  12.925   6.024   3.333 -0.8691  1.7252 -2.9252
  314DOPC  C21343267  13.034   5.845   3.350  0.7404  0.4649 -0.3181
  314DOPC  H13R43268  13.136   5.868   3.311  0.5179  0.9622 -0.6305
  314DOPC  H13S43269  13.011   5.739   3.325  0.3706  0.8208 -1.5845
  314DOPC  C21443270  13.025   5.862   3.499  0.0666  0.4636 -0.1819
  314DOPC  H14R43271  13.048   5.767   3.552 -1.7321 -0.2694 -0.6354
  314DOPC  H14S43272  12.918   5.884   3.521  0.0893 -0.6998  1.2485
  314DOPC  C21543273  13.123   5.966   3.559  0.3323 -0.1099 -0.0980
  314DOPC  H15R43274  13.102   6.060   3.503  0.1259  0.7876  1.4356
  314DOPC  H15S43275  13.228   5.930   3.548  0.1983 -0.1602 -1.4542
  314DOPC  C21643276  13.096   5.994   3.700 -0.0932  0.1133 -0.1845
  314DOPC  H16R43277  12.986   6.008   3.715 -0.5879 -0.5211 -2.7643
  314DOPC  H16S43278  13.144   6.092   3.719  1.4315 -0.7261  0.4599
  314DOPC  C21743279  13.137   5.885   3.800  0.1595 -0.9230  0.2939
  314DOPC  H17R43280  13.130   5.785   3.754 -0.5701 -1.1483  0.8833
  314DOPC  H17S43281  13.069   5.881   3.887 -1.7366  0.6105 -1.0285
  314DOPC  C21843282  13.282   5.907   3.861  0.5841 -0.3095 -0.5231
  314DOPC  H18R43283  13.366   5.906   3.789  1.5058 -1.4193  0.5208
  314DOPC  H18S43284  13.307   5.823   3.929  1.2930  1.8154  2.0221
  314DOPC  H18T43285  13.284   5.998   3.925  0.0634 -0.9342  0.4088
  314DOPC   C3343286  12.576   5.552   2.408  0.2285 -0.3785 -0.2869
  314DOPC   H3X43287  12.686   5.539   2.421  0.3212  0.4043 -0.2599
  314DOPC   H3Y43288  12.538   5.480   2.332  0.7933 -0.5033 -0.4544
  314DOPC   C3443289  12.503   5.503   2.539  0.7078 -0.2096 -0.2414
  314DOPC   H4X43290  12.400   5.476   2.507  0.6552  1.0954 -1.2542
  314DOPC   H4Y43291  12.481   5.586   2.609 -2.1560  0.4369 -1.7606
  314DOPC   C3543292  12.555   5.381   2.611 -0.7919 -0.6533  0.8171
  314DOPC   H5X43293  12.573   5.290   2.550  1.1191  2.0154 -3.0120
  314DOPC   H5Y43294  12.490   5.356   2.697 -1.7081  1.1356  0.6806
  314DOPC   C3643295  12.689   5.417   2.674 -0.2766 -0.3166 -0.6179
  314DOPC   H6X43296  12.767   5.401   2.597 -0.5303  0.7686 -1.1191
  314DOPC   H6Y43297  12.688   5.527   2.691 -0.4233 -0.2323 -1.1723
  314DOPC   C3743298  12.720   5.337   2.805 -0.5565 -0.5755 -0.2351
  314DOPC   H7X43299  12.710   5.227   2.791  0.6916 -0.6920 -0.3245
  314DOPC   H7Y43300  12.829   5.347   2.825 -0.1150  0.9129 -2.8588
  314DOPC   C3843301  12.648   5.370   2.937  0.1329 -0.2826 -0.4048
  314DOPC   H8X43302  12.653   5.275   2.994 -2.7192  0.0107  0.4687
  314DOPC   H8Y43303  12.540   5.391   2.921  0.2130 -0.5442 -1.3782
  314DOPC   C3943304  12.714   5.497   2.999  0.1717  0.5581  0.2015
  314DOPC   H9X43305  12.663   5.591   2.973 -1.9963 -0.2828  1.2520
  314DOPC  C31043306  12.810   5.494   3.096 -0.1122  0.1093 -0.0093
  314DOPC  H10X43307  12.851   5.590   3.130  0.3080 -0.5104  1.2667
  314DOPC  C31143308  12.881   5.378   3.159  0.2889  0.0474 -0.0536
  314DOPC  H11X43309  12.988   5.403   3.141  0.2902 -0.7365 -1.2061
  314DOPC  H11Y43310  12.852   5.282   3.112 -0.6060 -0.3777  1.2890
  314DOPC  C31243311  12.867   5.349   3.305 -0.0379  0.1354 -0.3968
  314DOPC  H12X43312  12.868   5.239   3.321  0.5198  0.4162  1.9528
  314DOPC  H12Y43313  12.779   5.403   3.347  0.2307 -0.8057  1.4778
  314DOPC  C31343314  12.984   5.399   3.398  0.3322 -0.2058  0.5712
  314DOPC  H13X43315  13.071   5.339   3.367 -1.1513 -1.6153 -1.1050
  314DOPC  H13Y43316  13.000   5.502   3.359 -1.6627 -0.1653 -0.2811
  314DOPC  C31443317  12.961   5.395   3.550 -0.6862  0.5243  0.4546
  314DOPC  H14X43318  12.885   5.474   3.568 -2.5375 -0.3600 -2.7299
  314DOPC  H14Y43319  12.914   5.299   3.579  0.0560  0.2810  0.8667
  314DOPC  C31543320  13.089   5.421   3.628  0.1447  0.0323  0.0309
  314DOPC  H15X43321  13.134   5.515   3.589 -0.8183 -0.5753 -2.8416
  314DOPC  H15Y43322  13.155   5.335   3.605 -0.5137 -0.7217  0.9051
  314DOPC  C31643323  13.054   5.390   3.774 -0.2714  0.2954 -0.4903
  314DOPC  H16X43324  12.998   5.295   3.786  1.8771 -1.2772 -2.0512
  314DOPC  H16Y43325  13.144   5.382   3.837  0.1357  3.5696 -0.4893
  314DOPC  C31743326  12.974   5.499   3.847  0.5403  0.4271  0.1118
  314DOPC  H17X43327  13.026   5.597   3.851  0.1888  0.7531 -2.0073
  314DOPC  H17Y43328  12.883   5.520   3.786  1.1010  2.5119 -0.0981
  314DOPC  C31843329  12.924   5.461   3.985  0.7883  0.1626  0.0168
  314DOPC  H18X43330  13.011   5.437   4.049  1.5260  2.6396  0.0571
  314DOPC  H18Y43331  12.867   5.545   4.031  1.1593 -0.2921  1.3833
  314DOPC  H18Z43332  12.848   5.383   3.966 -1.1446  2.3665 -2.0008
  315DOPC     N43333  11.473   7.663   1.641 -1.1869  0.0915 -0.0452
  315DOPC   C1243334  11.528   7.717   1.771  0.4383 -0.2539  0.3443
  315DOPC  H12A43335  11.611   7.775   1.734 -0.0298  0.2131  0.0182
  315DOPC  H12B43336  11.567   7.643   1.840  1.3994  0.2160  0.3128
  315DOPC   C1343337  11.344   7.593   1.665 -0.6121 -0.3639  0.4071
  315DOPC  H13A43338  11.351   7.515   1.739  0.6485  0.8981  1.6735
  315DOPC  H13B43339  11.281   7.671   1.707 -0.8977 -0.3698 -0.0062
  315DOPC  H13C43340  11.295   7.554   1.577 -0.6075  2.7597 -1.1200
  315DOPC   C1443341  11.566   7.558   1.576  1.3478 -0.2257  0.0477
  315DOPC  H14A43342  11.518   7.506   1.494  0.1937  2.2950 -0.9828
  315DOPC  H14B43343  11.651   7.607   1.529  1.0521 -0.9378 -1.2797
  315DOPC  H14C43344  11.586   7.470   1.634 -1.2856 -2.0275 -1.5691
  315DOPC   C1543345  11.444   7.773   1.540 -0.0569  0.8140 -0.0258
  315DOPC  H15A43346  11.535   7.792   1.485  0.9685  0.0203  1.3291
  315DOPC  H15B43347  11.419   7.867   1.588  1.7727  2.0612 -1.3955
  315DOPC  H15C43348  11.372   7.737   1.469  0.6692  1.1107 -0.9320
  315DOPC   C1143349  11.434   7.820   1.839 -0.4179 -0.2728  0.1420
  315DOPC  H11A43350  11.331   7.778   1.847  0.2580 -2.4124 -1.4108
  315DOPC  H11B43351  11.468   7.834   1.944  1.5298  3.2323 -0.7889
  315DOPC     P43352  11.546   8.050   1.802  0.5532 -0.3095  0.4862
  315DOPC   O1343353  11.533   8.162   1.707 -0.0607  0.1284  0.1167
  315DOPC   O1443354  11.677   7.984   1.801  0.1378 -0.8438  0.1320
  315DOPC   O1243355  11.439   7.940   1.769 -0.4004 -0.4112  0.1984
  315DOPC   O1143356  11.509   8.097   1.947 -0.3347 -0.1815  0.2233
  315DOPC    C143357  11.383   8.147   1.979  0.5094 -0.2038  0.0608
  315DOPC    HA43358  11.311   8.064   1.962  1.5318 -1.1958  0.4243
  315DOPC    HB43359  11.357   8.235   1.916  0.6593  0.6593  1.1706
  315DOPC    C243360  11.388   8.218   2.119  0.5738  0.3276  0.4858
  315DOPC    HS43361  11.282   8.240   2.145  0.2372  0.8623 -1.2265
  315DOPC   O2143362  11.469   8.335   2.116  0.0315  0.2415  0.4661
  315DOPC   C2143363  11.406   8.450   2.108 -0.0253  0.0227  0.3837
  315DOPC   O2243364  11.288   8.474   2.088 -0.6540  0.1631 -0.7294
  315DOPC   C2243365  11.508   8.563   2.146  0.6433 -0.0013 -0.3181
  315DOPC   H2R43366  11.537   8.597   2.044  0.1188 -0.8903 -0.7827
  315DOPC   H2S43367  11.596   8.513   2.193  0.7928  1.6592  1.2462
  315DOPC    C343368  11.447   8.120   2.224  0.0263 -0.7158  0.3939
  315DOPC    HX43369  11.553   8.089   2.208  0.9947  2.5871 -0.3251
  315DOPC    HY43370  11.380   8.031   2.223  0.3786 -0.9949  1.1594
  315DOPC   O3143371  11.463   8.178   2.356  0.2133  0.5254  0.1535
  315DOPC   C3143372  11.361   8.184   2.440  0.5748  0.2064  0.0889
  315DOPC   O3243373  11.256   8.132   2.417  0.1584  0.2278 -0.0644
  315DOPC   C3243374  11.402   8.261   2.567  0.6435 -1.2593  0.1205
  315DOPC   H2X43375  11.490   8.214   2.616  1.2889 -1.7381 -1.4484
  315DOPC   H2Y43376  11.432   8.363   2.537 -2.9459  0.3467  1.4611
  315DOPC   C2343377  11.443   8.677   2.229 -0.2924 -0.5985  0.5040
  315DOPC   H3R43378  11.343   8.696   2.186 -0.1634  0.0818  0.4964
  315DOPC   H3S43379  11.501   8.771   2.215  0.2368 -1.0194 -0.2118
  315DOPC   C2443380  11.456   8.652   2.383  0.1681  0.5465  0.6467
  315DOPC   H4R43381  11.560   8.622   2.409  0.6866  0.9578 -0.8089
  315DOPC   H4S43382  11.399   8.557   2.394 -1.1396  1.0351 -1.2979
  315DOPC   C2543383  11.391   8.757   2.472  0.1284  0.3818 -0.2043
  315DOPC   H5R43384  11.284   8.731   2.486  0.1850 -0.3626 -1.0256
  315DOPC   H5S43385  11.415   8.858   2.430  2.8653 -0.1405 -0.0667
  315DOPC   C2643386  11.455   8.748   2.613 -0.3698  0.2667 -0.1524
  315DOPC   H6R43387  11.562   8.776   2.617 -0.3235  0.0346  0.2851
  315DOPC   H6S43388  11.452   8.643   2.650 -2.0055 -0.0942 -1.2107
  315DOPC   C2743389  11.360   8.832   2.715 -0.2386 -0.6150  0.7350
  315DOPC   H7R43390  11.256   8.827   2.676 -0.0279 -0.9958  0.2169
  315DOPC   H7S43391  11.394   8.937   2.704 -1.2418 -0.1562  1.8047
  315DOPC   C2843392  11.387   8.801   2.864 -0.3033  0.0046  0.2221
  315DOPC   H8R43393  11.491   8.828   2.889  0.8649 -3.1636 -0.8044
  315DOPC   H8S43394  11.376   8.691   2.870  0.2060 -0.0929 -0.5596
  315DOPC   C2943395  11.276   8.883   2.927 -0.1173 -0.6092  0.1829
  315DOPC   H9R43396  11.202   8.931   2.861 -0.8510 -1.4448  0.3784
  315DOPC  C21043397  11.250   8.875   3.057 -0.6524  1.2185 -0.2996
  315DOPC  H10R43398  11.181   8.947   3.103 -2.9470 -0.7797 -0.3771
  315DOPC  C21143399  11.323   8.783   3.155  0.8803  0.1066  0.5526
  315DOPC  H11R43400  11.416   8.737   3.114 -0.9482 -1.3062 -2.3322
  315DOPC  H11S43401  11.256   8.698   3.178  0.4548  0.2919  0.0137
  315DOPC  C21243402  11.344   8.864   3.283 -0.5218 -0.1453 -0.2399
  315DOPC  H12R43403  11.267   8.944   3.291  0.4609  0.7243  1.0547
  315DOPC  H12S43404  11.448   8.903   3.275 -0.2800 -0.9432 -1.0319
  315DOPC  C21343405  11.336   8.774   3.414  0.0445 -0.2115 -0.2684
  315DOPC  H13R43406  11.361   8.828   3.507  0.8274  0.0757 -0.6414
  315DOPC  H13S43407  11.405   8.688   3.399  0.8690 -0.0842  2.2841
  315DOPC  C21443408  11.196   8.717   3.433 -0.5460  0.1851  0.1293
  315DOPC  H14R43409  11.173   8.652   3.346 -1.3391  0.7434 -0.0797
  315DOPC  H14S43410  11.120   8.797   3.435 -0.2735  0.4736 -0.8955
  315DOPC  C21543411  11.179   8.630   3.556  0.1943 -0.3551  0.0298
  315DOPC  H15R43412  11.213   8.676   3.652 -3.2586 -1.5740  2.0331
  315DOPC  H15S43413  11.242   8.539   3.549  1.4640  0.5527 -0.6981
  315DOPC  C21643414  11.031   8.586   3.572 -0.1834 -0.7983 -0.2111
  315DOPC  H16R43415  10.988   8.547   3.476  1.3632 -0.2378 -1.1688
  315DOPC  H16S43416  10.964   8.668   3.605  0.4451 -0.2427 -0.2962
  315DOPC  C21743417  11.011   8.487   3.690 -0.6731  0.9389 -0.0451
  315DOPC  H17R43418  10.915   8.509   3.740  0.7453  0.4903  3.1262
  315DOPC  H17S43419  11.095   8.507   3.761  0.1371 -1.6880 -0.1588
  315DOPC  C21843420  11.003   8.335   3.652 -0.4180 -0.6741 -0.1051
  315DOPC  H18R43421  10.927   8.330   3.570 -0.7651 -2.3225  0.2695
  315DOPC  H18S43422  10.965   8.270   3.733  0.3630  0.8739  1.5624
  315DOPC  H18T43423  11.106   8.307   3.620  0.1755  0.6053  0.6319
  315DOPC   C3343424  11.294   8.265   2.671  0.4296 -0.0839  0.2098
  315DOPC   H3X43425  11.291   8.162   2.711  1.6081  0.6880  2.4604
  315DOPC   H3Y43426  11.200   8.297   2.620 -0.4562 -0.9472  1.2488
  315DOPC   C3443427  11.314   8.374   2.780 -0.5994  0.0567 -0.6743
  315DOPC   H4X43428  11.244   8.457   2.755  0.6182  0.5094 -2.8403
  315DOPC   H4Y43429  11.413   8.416   2.754 -0.3832 -0.3284 -0.4848
  315DOPC   C3543430  11.316   8.334   2.923  0.1905 -0.5619 -0.3322
  315DOPC   H5X43431  11.411   8.277   2.925  0.9730  0.7307  0.8969
  315DOPC   H5Y43432  11.227   8.270   2.944 -0.8383  0.6409 -0.8443
  315DOPC   C3643433  11.315   8.450   3.022 -0.6434 -0.7494 -1.0466
  315DOPC   H6X43434  11.386   8.531   2.998 -0.6838 -0.2270  0.5020
  315DOPC   H6Y43435  11.217   8.502   3.027 -0.0526  0.4277 -1.3497
  315DOPC   C3743436  11.356   8.408   3.164 -0.0905  0.4424 -0.1793
  315DOPC   H7X43437  11.447   8.343   3.167 -1.9924 -2.4137  0.3524
  315DOPC   H7Y43438  11.372   8.499   3.225  0.2800  0.7375 -0.7132
  315DOPC   C3843439  11.240   8.314   3.227 -0.1601 -0.3128 -0.1882
  315DOPC   H8X43440  11.224   8.220   3.171  1.8020 -1.9918  1.8858
  315DOPC   H8Y43441  11.153   8.382   3.214  0.8863  1.0103 -0.6342
  315DOPC   C3943442  11.280   8.275   3.365 -0.5521 -0.1149 -0.1948
  315DOPC   H9X43443  11.273   8.356   3.440  1.6670  1.0137 -1.0916
  315DOPC  C31043444  11.352   8.159   3.392  0.0163 -0.0171  0.3782
  315DOPC  H10X43445  11.386   8.145   3.495  1.2452 -1.1778 -0.1571
  315DOPC  C31143446  11.372   8.038   3.310  0.2894  0.3625  0.2180
  315DOPC  H11X43447  11.465   7.983   3.338 -1.0778 -1.7713  0.7888
  315DOPC  H11Y43448  11.390   8.057   3.202 -0.4123 -1.9550 -0.3525
  315DOPC  C31243449  11.259   7.947   3.350 -0.5518  0.6416 -0.4196
  315DOPC  H12X43450  11.271   7.850   3.297  1.1619  0.0305  0.9793
  315DOPC  H12Y43451  11.159   7.988   3.325 -1.1000 -1.0776 -1.2129
  315DOPC  C31343452  11.267   7.899   3.499  0.3279 -0.2831 -0.4278
  315DOPC  H13X43453  11.360   7.842   3.520 -0.7405 -1.0070  2.8960
  315DOPC  H13Y43454  11.270   7.987   3.567  1.8512 -0.5070 -0.1756
  315DOPC  C31443455  11.147   7.818   3.542  0.7316  0.1190 -0.0360
  315DOPC  H14X43456  11.059   7.885   3.545 -0.2797 -1.1365 -0.8897
  315DOPC  H14Y43457  11.127   7.731   3.476  1.3036  0.9060 -1.2899
  315DOPC  C31543458  11.177   7.771   3.683 -1.1194  0.2634  0.4317
  315DOPC  H15X43459  11.212   7.861   3.737 -0.3355 -0.5991  1.4111
  315DOPC  H15Y43460  11.271   7.711   3.680 -1.0246  0.4187  0.3215
  315DOPC  C31643461  11.063   7.710   3.750  0.0565  0.3216 -0.2624
  315DOPC  H16X43462  10.974   7.773   3.732 -0.4394 -0.1148  0.5605
  315DOPC  H16Y43463  11.057   7.608   3.706  2.9971 -0.2225  0.4184
  315DOPC  C31743464  11.084   7.693   3.904 -0.0307  0.4030  0.1709
  315DOPC  H17X43465  11.068   7.788   3.958 -3.0392  0.1676 -0.1203
  315DOPC  H17Y43466  11.003   7.630   3.947  0.1078  0.2700  0.2388
  315DOPC  C31843467  11.218   7.633   3.933 -0.0407 -0.5156  0.1479
  315DOPC  H18X43468  11.240   7.550   3.863  0.6727  0.6059 -1.0007
  315DOPC  H18Y43469  11.291   7.716   3.926  0.4722 -0.5476  3.4873
  315DOPC  H18Z43470  11.239   7.609   4.040  0.8886  0.7744  0.2707
  316DOPC     N43471   6.037   9.767   1.881 -0.3033  0.2084  0.5419
  316DOPC   C1243472   6.100   9.893   1.945  0.0580  0.0404 -0.1036
  316DOPC  H12A43473   6.148   9.874   2.040  1.3687  3.0158 -0.0768
  316DOPC  H12B43474   6.020   9.960   1.972  0.6981  0.0664  1.9252
  316DOPC   C1343475   5.947   9.695   1.980  0.1126 -0.1515  0.5597
  316DOPC  H13A43476   6.007   9.635   2.047  1.4191  1.0044  0.4835
  316DOPC  H13B43477   5.896   9.774   2.032 -2.0219 -0.7555 -0.5211
  316DOPC  H13C43478   5.877   9.643   1.916 -0.1667  2.1167 -1.1149
  316DOPC   C1443479   6.132   9.668   1.821  0.1381  0.1116 -0.3623
  316DOPC  H14A43480   6.191   9.614   1.892 -3.5455 -2.7425  0.8579
  316DOPC  H14B43481   6.082   9.591   1.764  0.8826 -0.0454 -0.8091
  316DOPC  H14C43482   6.195   9.718   1.749  0.1627 -0.4602 -0.7428
  316DOPC   C1543483   5.953   9.814   1.761  0.1060 -1.0452  0.1197
  316DOPC  H15A43484   6.014   9.852   1.680  0.4358 -3.5590 -0.9027
  316DOPC  H15B43485   5.895   9.898   1.795  2.1658 -0.2235  1.8209
  316DOPC  H15C43486   5.886   9.742   1.717 -0.8629 -1.4182  2.1073
  316DOPC   C1143487   6.208   9.969   1.865  0.2943  0.8432 -0.8075
  316DOPC  H11A43488   6.168   9.992   1.765  1.4257 -0.5044 -1.6174
  316DOPC  H11B43489   6.226  10.067   1.914 -0.7193  0.2540  0.8379
  316DOPC     P43490   6.420   9.862   1.987 -0.0731  0.3527 -0.2808
  316DOPC   O1343491   6.504   9.980   2.017 -0.0733  0.7598 -0.1802
  316DOPC   O1443492   6.489   9.731   1.952  0.6395 -0.1220  0.6951
  316DOPC   O1243493   6.324   9.882   1.859  0.1964 -0.2673 -0.0647
  316DOPC   O1143494   6.322   9.846   2.107  0.3240  0.4390 -0.1697
  316DOPC    C143495   6.276   9.719   2.163  0.1362 -0.1826 -0.1238
  316DOPC    HA43496   6.360   9.655   2.196 -1.0659 -0.9067  1.6798
  316DOPC    HB43497   6.237   9.660   2.077  0.0223  1.4093 -1.2059
  316DOPC    C243498   6.175   9.733   2.283 -0.0213 -0.6626  0.0309
  316DOPC    HS43499   6.076   9.723   2.235 -0.6834 -0.1484  1.2493
  316DOPC   O2143500   6.193   9.853   2.348 -0.1355 -0.0820 -0.4518
  316DOPC   C2143501   6.124   9.964   2.304  0.5249  0.1008  0.3311
  316DOPC   O2243502   6.050   9.963   2.209  0.0686  0.7871  0.3162
  316DOPC   C2243503   6.155  10.089   2.387 -0.2832 -0.2239  0.5860
  316DOPC   H2R43504   6.152  10.175   2.316  1.4248 -1.6314 -1.3031
  316DOPC   H2S43505   6.253  10.079   2.437 -1.0688 -0.4171  2.1413
  316DOPC    C343506   6.189   9.624   2.392  0.8657  0.1223  0.0644
  316DOPC    HX43507   6.276   9.649   2.457 -0.0212 -0.1597  1.3960
  316DOPC    HY43508   6.215   9.531   2.336 -1.3473 -0.1155 -0.6419
  316DOPC   O3143509   6.070   9.597   2.469 -0.1556 -0.2659  0.0953
  316DOPC   C3143510   6.078   9.480   2.539  0.0853  0.3120  0.1637
  316DOPC   O3243511   6.175   9.410   2.532 -0.3810  0.1547 -0.2601
  316DOPC   C3243512   5.953   9.450   2.627 -0.0251  1.0285  0.2502
  316DOPC   H2X43513   5.963   9.516   2.716 -0.7157  3.6692 -1.5315
  316DOPC   H2Y43514   5.863   9.486   2.574 -0.5363 -1.7024 -0.9076
  316DOPC   C2343515   6.056  10.096   2.504  0.1878 -0.0816 -0.4775
  316DOPC   H3R43516   5.958  10.059   2.467  0.0524 -0.7268  0.5099
  316DOPC   H3S43517   6.037  10.202   2.534 -0.0949 -0.3009  0.1337
  316DOPC   C2443518   6.092  10.007   2.625  0.7794 -0.6571 -0.0110
  316DOPC   H4R43519   6.186  10.029   2.679  1.7226 -2.3186 -0.8688
  316DOPC   H4S43520   6.109   9.903   2.587 -0.3692 -1.1222  0.7046
  316DOPC   C2543521   5.980   9.995   2.721 -0.4436  0.2860  0.4428
  316DOPC   H5R43522   5.885  10.004   2.664 -1.5314 -1.9123  1.7540
  316DOPC   H5S43523   5.977  10.070   2.803 -1.4386 -1.9094  2.5238
  316DOPC   C2643524   5.986   9.853   2.782 -0.3318 -0.2465 -0.5057
  316DOPC   H6R43525   5.969   9.780   2.700 -0.3297 -0.2788 -0.4781
  316DOPC   H6S43526   5.909   9.838   2.861  0.6920  0.4528  0.6625
  316DOPC   C2743527   6.113   9.814   2.871  0.4014 -0.4519 -0.3404
  316DOPC   H7R43528   6.098   9.868   2.967  0.6968  0.1262 -0.6102
  316DOPC   H7S43529   6.199   9.870   2.828  0.3034  0.0772  0.1307
  316DOPC   C2843530   6.120   9.664   2.893  0.2983  0.1512 -0.2357
  316DOPC   H8R43531   6.154   9.622   2.795  0.1483 -1.7485  0.4796
  316DOPC   H8S43532   6.017   9.622   2.902  0.2457 -0.0690 -1.6280
  316DOPC   C2943533   6.207   9.624   3.009 -0.5731  0.7615 -0.1901
  316DOPC   H9R43534   6.303   9.677   3.020  1.0040 -1.7680 -0.9857
  316DOPC  C21043535   6.175   9.528   3.101 -0.1794 -0.0642  0.7760
  316DOPC  H10R43536   6.244   9.508   3.184  3.0183 -1.2101 -1.9321
  316DOPC  C21143537   6.048   9.443   3.100 -0.3390  0.0111 -0.5254
  316DOPC  H11R43538   6.065   9.333   3.111  0.6835  0.0376 -1.6069
  316DOPC  H11S43539   5.993   9.464   3.005 -1.0474  0.5630  0.0004
  316DOPC  C21243540   5.963   9.490   3.218  0.1707 -0.5689  0.3037
  316DOPC  H12R43541   5.910   9.578   3.177  1.0687  0.7896  1.9489
  316DOPC  H12S43542   6.017   9.523   3.309 -0.4893  1.2659  0.0785
  316DOPC  C21343543   5.869   9.370   3.250  0.3369 -0.0618  0.3003
  316DOPC  H13R43544   5.936   9.298   3.301 -0.6581 -0.3307  1.2728
  316DOPC  H13S43545   5.829   9.336   3.152 -0.1334  1.1250  0.0582
  316DOPC  C21443546   5.741   9.405   3.334 -0.9098 -0.4420  0.3567
  316DOPC  H14R43547   5.706   9.504   3.296  0.7424  1.0642  2.4869
  316DOPC  H14S43548   5.776   9.428   3.437 -3.6575  1.1238  1.0463
  316DOPC  C21543549   5.636   9.289   3.334  0.1549  0.1049  0.0282
  316DOPC  H15R43550   5.677   9.194   3.375  1.8607  0.8922  0.2244
  316DOPC  H15S43551   5.596   9.272   3.232 -0.4966  1.2708  0.0701
  316DOPC  C21643552   5.513   9.308   3.416  0.5311 -0.5897 -0.3815
  316DOPC  H16R43553   5.548   9.350   3.513  1.8686  0.4736 -1.2932
  316DOPC  H16S43554   5.452   9.216   3.432 -1.5311  0.3736 -2.1088
  316DOPC  C21743555   5.428   9.416   3.352  0.2707  0.1722  0.0662
  316DOPC  H17R43556   5.411   9.388   3.246  1.7938 -0.6293  0.0113
  316DOPC  H17S43557   5.474   9.516   3.345 -0.1641  0.9466  4.9291
  316DOPC  C21843558   5.289   9.440   3.413 -0.6271 -0.1346  0.1062
  316DOPC  H18R43559   5.230   9.507   3.347 -1.0185 -0.5322  0.0492
  316DOPC  H18S43560   5.304   9.478   3.516 -2.2646 -1.5573  0.9263
  316DOPC  H18T43561   5.234   9.346   3.434 -1.3515 -0.3529 -2.4964
  316DOPC   C3343562   5.936   9.299   2.657  0.5474  0.4825  0.3333
  316DOPC   H3X43563   5.960   9.240   2.566  0.3079  0.8593  0.0200
  316DOPC   H3Y43564   5.826   9.288   2.674  0.0378 -0.1003 -2.7553
  316DOPC   C3443565   6.005   9.248   2.784 -0.0342  0.6709  0.8974
  316DOPC   H4X43566   5.948   9.282   2.874  1.6122 -0.0419  2.2821
  316DOPC   H4Y43567   6.106   9.294   2.793  0.8930 -1.3756  1.3866
  316DOPC   C3543568   6.013   9.095   2.791 -0.3704 -0.7911 -0.2031
  316DOPC   H5X43569   6.102   9.079   2.727  1.5121  1.4787  1.6106
  316DOPC   H5Y43570   5.932   9.041   2.738  1.8021 -3.3194 -1.1660
  316DOPC   C3643571   6.033   9.029   2.922  0.1100 -0.8095 -0.8671
  316DOPC   H6X43572   5.945   9.048   2.987  0.7596  0.9658 -0.4586
  316DOPC   H6Y43573   6.047   8.920   2.901 -0.0800 -0.9610 -0.2458
  316DOPC   C3743574   6.158   9.072   2.994 -0.0323 -0.2112 -0.5295
  316DOPC   H7X43575   6.244   9.085   2.924  0.1270  1.5327 -0.0506
  316DOPC   H7Y43576   6.133   9.172   3.034 -1.1367 -1.5762  2.5040
  316DOPC   C3843577   6.192   8.979   3.109  0.1475 -0.6838 -0.7061
  316DOPC   H8X43578   6.231   8.886   3.062  0.3993 -0.7679 -0.3298
  316DOPC   H8Y43579   6.097   8.955   3.161  0.3255  1.6547  0.8896
  316DOPC   C3943580   6.290   9.055   3.201 -0.4711  0.0558  0.1324
  316DOPC   H9X43581   6.366   9.118   3.152  0.4308  0.0353  1.4530
  316DOPC  C31043582   6.300   9.051   3.335 -0.2383 -0.5829  1.0568
  316DOPC  H10X43583   6.378   9.111   3.385  0.7599 -0.7592 -0.2449
  316DOPC  C31143584   6.205   8.973   3.426  0.7412 -0.2337  0.3607
  316DOPC  H11X43585   6.172   8.874   3.390 -3.6810  0.9295  0.6280
  316DOPC  H11Y43586   6.114   9.037   3.424  1.9241  1.5019 -1.2917
  316DOPC  C31243587   6.254   8.961   3.572  0.5471 -0.1769 -0.1295
  316DOPC  H12X43588   6.169   8.913   3.625 -0.6326  0.5772 -1.3003
  316DOPC  H12Y43589   6.263   9.060   3.622 -0.0603 -0.1718 -0.0239
  316DOPC  C31343590   6.380   8.879   3.602  0.4449  0.1638  0.2960
  316DOPC  H13X43591   6.353   8.774   3.577 -1.2054  1.0300 -1.8488
  316DOPC  H13Y43592   6.453   8.913   3.526  1.2723  1.4730  1.6135
  316DOPC  C31443593   6.442   8.887   3.743 -0.1146  0.4138 -0.4963
  316DOPC  H14X43594   6.379   8.819   3.806 -0.8203  0.3346 -1.2667
  316DOPC  H14Y43595   6.532   8.825   3.726 -0.8568 -0.2025 -2.4756
  316DOPC  C31543596   6.474   9.026   3.809 -0.0900  0.6644  0.8169
  316DOPC  H15X43597   6.381   9.085   3.802 -1.3920 -1.0178  2.9077
  316DOPC  H15Y43598   6.548   9.073   3.740  0.1093 -0.0375  0.5422
  316DOPC  C31643599   6.507   9.021   3.952 -0.0176 -0.8757 -0.2488
  316DOPC  H16X43600   6.427   8.968   4.009  0.0659 -0.4965  0.2287
  316DOPC  H16Y43601   6.600   8.960   3.960  0.5847  0.0850  0.3391
  316DOPC  C31743602   6.520   9.156   4.020 -0.2075 -0.0634  0.2381
  316DOPC  H17X43603   6.602   9.215   3.974 -1.8419  1.6799 -0.5829
  316DOPC  H17Y43604   6.430   9.214   3.990 -0.3163 -0.8571 -1.0643
  316DOPC  C31843605   6.534   9.138   4.172 -0.5847  0.0163 -1.0179
  316DOPC  H18X43606   6.446   9.078   4.200 -0.6719  0.0884 -1.1371
  316DOPC  H18Y43607   6.624   9.082   4.205 -1.6427 -0.3342  1.4947
  316DOPC  H18Z43608   6.538   9.239   4.218 -0.4902  0.0025 -0.9953
  317DOPC     N43609   3.343   6.334   1.563 -0.6457  0.3731 -0.3609
  317DOPC   C1243610   3.187   6.347   1.572 -0.0178 -0.2915 -0.0617
  317DOPC  H12A43611   3.157   6.306   1.477  0.1537  1.2559 -0.8180
  317DOPC  H12B43612   3.159   6.451   1.561 -0.1151 -0.5444 -3.3993
  317DOPC   C1343613   3.414   6.391   1.684 -0.0083 -0.1556  0.8664
  317DOPC  H13A43614   3.519   6.402   1.661  0.0400 -3.8199 -1.5351
  317DOPC  H13B43615   3.369   6.487   1.709  0.8173 -0.0934  2.1847
  317DOPC  H13C43616   3.401   6.326   1.769 -1.0811 -0.2716  0.6286
  317DOPC   C1443617   3.392   6.396   1.444 -0.2280 -0.0318  0.7434
  317DOPC  H14A43618   3.367   6.501   1.451 -0.4883 -0.1095  0.9717
  317DOPC  H14B43619   3.497   6.382   1.422 -0.3448  0.1608  0.0078
  317DOPC  H14C43620   3.351   6.363   1.350  2.0724  0.2064 -0.4154
  317DOPC   C1543621   3.384   6.192   1.557  1.2341  0.2493 -0.4519
  317DOPC  H15A43622   3.349   6.128   1.637 -0.6797 -1.7076 -2.6943
  317DOPC  H15B43623   3.491   6.175   1.556  1.3924 -0.4971  4.4836
  317DOPC  H15C43624   3.347   6.155   1.463 -0.4045  1.0813 -0.1806
  317DOPC   C1143625   3.109   6.289   1.690  0.4365  0.1137  0.6538
  317DOPC  H11A43626   3.147   6.344   1.779  2.4184  2.0164 -1.2584
  317DOPC  H11B43627   3.005   6.319   1.667  1.6388  3.7146 -0.7585
  317DOPC     P43628   3.018   6.045   1.646  0.1404 -0.4842 -0.0287
  317DOPC   O1343629   3.094   5.919   1.623 -0.5797  0.2122 -0.5158
  317DOPC   O1443630   2.942   6.099   1.532  0.3082  0.4978  0.4088
  317DOPC   O1243631   3.126   6.149   1.697 -0.7991  0.1163  0.7715
  317DOPC   O1143632   2.919   6.042   1.766  0.4696 -0.5823 -0.3187
  317DOPC    C143633   2.965   6.044   1.901  0.7687 -0.0593 -0.0298
  317DOPC    HA43634   3.004   6.143   1.933  1.9992  0.1742 -2.0743
  317DOPC    HB43635   3.038   5.961   1.912 -0.4243 -1.0655  0.5893
  317DOPC    C243636   2.844   5.991   1.995 -0.5208 -0.4646 -0.0264
  317DOPC    HS43637   2.769   6.071   2.012 -0.5561 -0.1934 -1.3223
  317DOPC   O2143638   2.894   5.945   2.123  0.0712  0.1152 -0.5364
  317DOPC   C2143639   2.954   6.029   2.195  0.0393 -0.5282  0.1855
  317DOPC   O2243640   2.950   6.153   2.176  0.0867 -0.3770 -0.0606
  317DOPC   C2243641   3.019   5.971   2.321  0.1795 -0.0854 -0.2606
  317DOPC   H2R43642   3.051   5.866   2.303 -0.0552 -0.0164 -1.1010
  317DOPC   H2S43643   2.942   5.972   2.402  1.1704  3.4635  0.8103
  317DOPC    C343644   2.764   5.873   1.928  0.8297 -0.0294  0.1763
  317DOPC    HX43645   2.830   5.789   1.896 -0.9410 -0.9812 -1.2008
  317DOPC    HY43646   2.718   5.907   1.832  0.7549 -0.4357  0.0638
  317DOPC   O3143647   2.659   5.830   2.016 -0.6709  0.1730 -0.0747
  317DOPC   C3143648   2.694   5.736   2.103 -1.4935 -0.7136 -0.4141
  317DOPC   O3243649   2.800   5.669   2.098 -0.3192  0.1792  0.0978
  317DOPC   C3243650   2.580   5.702   2.197  0.2493 -0.0454 -0.0974
  317DOPC   H2X43651   2.512   5.789   2.207 -0.8579 -1.0061  1.0131
  317DOPC   H2Y43652   2.536   5.616   2.142  0.9435 -0.1030 -0.5706
  317DOPC   C2343653   3.132   6.058   2.375 -0.3032  0.0873  0.2881
  317DOPC   H3R43654   3.096   6.158   2.407 -0.1818  0.8342 -1.7661
  317DOPC   H3S43655   3.204   6.086   2.295 -1.3696 -0.7863 -1.0196
  317DOPC   C2443656   3.186   5.988   2.502 -0.8764 -0.0330 -0.0838
  317DOPC   H4R43657   3.247   5.898   2.479 -1.0654 -1.1370  3.1920
  317DOPC   H4S43658   3.098   5.950   2.560 -0.5338 -1.7218 -0.6088
  317DOPC   C2543659   3.265   6.082   2.585  0.0101  0.1388 -0.1918
  317DOPC   H5R43660   3.213   6.178   2.608  0.5881  0.7551 -1.3834
  317DOPC   H5S43661   3.349   6.115   2.521 -0.4916  3.0310  0.4709
  317DOPC   C2643662   3.325   6.028   2.721  0.2512 -0.6430  0.2003
  317DOPC   H6R43663   3.242   5.992   2.785 -2.2935  2.6735 -0.9633
  317DOPC   H6S43664   3.370   6.110   2.780  0.2222 -0.7942  0.4331
  317DOPC   C2743665   3.432   5.931   2.697 -0.2803  0.7376 -0.6711
  317DOPC   H7R43666   3.520   5.970   2.642  2.2808 -2.1044  1.0916
  317DOPC   H7S43667   3.392   5.845   2.640 -1.3127  0.5351  0.3217
  317DOPC   C2843668   3.471   5.864   2.833 -0.2425 -0.1566 -0.0591
  317DOPC   H8R43669   3.550   5.790   2.811  0.7370  0.8509 -0.0410
  317DOPC   H8S43670   3.381   5.820   2.881 -0.9697 -0.1498 -1.3889
  317DOPC   C2943671   3.549   5.956   2.919  0.1227  0.4862 -0.0051
  317DOPC   H9R43672   3.646   5.989   2.879  0.3733  1.1394  1.0964
  317DOPC  C21043673   3.495   6.016   3.032  0.3213  0.9672 -0.0421
  317DOPC  H10R43674   3.562   6.065   3.104  2.8511 -0.8118 -1.0359
  317DOPC  C21143675   3.358   5.977   3.087 -0.0927 -0.1737 -0.0571
  317DOPC  H11R43676   3.342   5.868   3.073 -0.2532 -0.0282 -1.1502
  317DOPC  H11S43677   3.281   6.030   3.026 -0.6066  0.0093  0.7412
  317DOPC  C21243678   3.314   6.008   3.232  0.6403 -0.0911 -0.6744
  317DOPC  H12R43679   3.206   5.985   3.248  0.1727  3.3297  2.2767
  317DOPC  H12S43680   3.327   6.117   3.249 -1.1228  0.1046 -0.3703
  317DOPC  C21343681   3.391   5.931   3.336 -0.6909  0.7597 -0.2050
  317DOPC  H13R43682   3.501   5.932   3.316 -0.4144 -0.7578  1.0075
  317DOPC  H13S43683   3.372   5.824   3.310  1.8344  0.2474 -0.2968
  317DOPC  C21443684   3.366   5.967   3.480  0.1343 -0.4977  1.2000
  317DOPC  H14R43685   3.256   5.967   3.495  0.2196 -0.9608  1.8553
  317DOPC  H14S43686   3.396   6.074   3.491  1.8497 -0.7142 -0.7355
  317DOPC  C21543687   3.424   5.874   3.582  0.2868 -0.3587 -0.3809
  317DOPC  H15R43688   3.534   5.889   3.577 -0.0297  2.1075 -0.8624
  317DOPC  H15S43689   3.402   5.770   3.548 -2.7783  0.3604 -0.8445
  317DOPC  C21643690   3.364   5.893   3.725 -0.7371 -0.1414  0.3681
  317DOPC  H16R43691   3.261   5.853   3.735 -0.3300 -0.8727  1.9964
  317DOPC  H16S43692   3.359   6.003   3.742 -2.3794 -0.3223  1.2778
  317DOPC  C21743693   3.442   5.821   3.837  0.1941  0.1334 -0.1641
  317DOPC  H17R43694   3.549   5.851   3.839  0.2820 -0.1353 -0.6094
  317DOPC  H17S43695   3.441   5.711   3.823 -0.5838  0.0330  0.6468
  317DOPC  C21843696   3.390   5.846   3.981  1.0303 -0.3050  0.2818
  317DOPC  H18R43697   3.284   5.816   3.990  0.3494  1.9953  0.5058
  317DOPC  H18S43698   3.391   5.950   4.018 -0.6461 -0.1201 -0.1084
  317DOPC  H18T43699   3.441   5.783   4.058  0.2769 -1.9775 -0.5274
  317DOPC   C3343700   2.620   5.638   2.333 -0.9040  0.4196  0.8821
  317DOPC   H3X43701   2.683   5.712   2.387 -0.1686  0.7607 -0.3891
  317DOPC   H3Y43702   2.665   5.538   2.319 -1.3247  0.1456  1.4701
  317DOPC   C3443703   2.504   5.611   2.429 -0.0957  0.0088  0.7893
  317DOPC   H4X43704   2.428   5.549   2.376  0.4012  0.9722 -1.1658
  317DOPC   H4Y43705   2.459   5.708   2.460 -0.1717  0.0578  0.5341
  317DOPC   C3543706   2.555   5.536   2.557  0.3095  0.4176  0.4095
  317DOPC   H5X43707   2.633   5.607   2.593  0.4966  1.4300 -1.8239
  317DOPC   H5Y43708   2.612   5.443   2.534 -1.1809 -0.4684  0.1915
  317DOPC   C3643709   2.448   5.510   2.660  0.8005 -0.4742  0.3304
  317DOPC   H6X43710   2.384   5.600   2.669  0.7764 -0.4127 -0.4551
  317DOPC   H6Y43711   2.391   5.423   2.623  0.5490 -0.5247  0.8300
  317DOPC   C3743712   2.510   5.470   2.790  0.9325 -0.3217  0.1953
  317DOPC   H7X43713   2.451   5.402   2.856 -2.0785  1.8993 -0.0239
  317DOPC   H7Y43714   2.597   5.409   2.758  2.1056  1.9916 -1.2809
  317DOPC   C3843715   2.563   5.585   2.878 -0.0089 -1.0463  0.8045
  317DOPC   H8X43716   2.632   5.643   2.813 -0.9063  0.8303  1.4308
  317DOPC   H8Y43717   2.625   5.553   2.965  2.4176  2.0506  0.4192
  317DOPC   C3943718   2.459   5.688   2.913  0.6067  0.0392  0.1692
  317DOPC   H9X43719   2.407   5.730   2.826 -1.5645 -2.2603  0.2439
  317DOPC  C31043720   2.413   5.708   3.036  0.3232 -0.5804  1.2586
  317DOPC  H10X43721   2.330   5.779   3.050 -0.8919 -1.7766  0.4752
  317DOPC  C31143722   2.468   5.635   3.155 -0.4200  0.5382  0.2709
  317DOPC  H11X43723   2.579   5.634   3.161 -0.4525  1.5602  1.6240
  317DOPC  H11Y43724   2.440   5.528   3.152  2.0056 -0.1279 -1.2094
  317DOPC  C31243725   2.423   5.686   3.292  0.7139  0.0389 -0.7228
  317DOPC  H12X43726   2.313   5.671   3.302  0.3351  3.3517  1.2585
  317DOPC  H12Y43727   2.451   5.793   3.302  1.2832 -0.0945 -0.8652
  317DOPC  C31343728   2.503   5.609   3.400 -0.6486  0.1543 -0.0054
  317DOPC  H13X43729   2.513   5.503   3.370 -1.7880  0.1854 -0.5284
  317DOPC  H13Y43730   2.607   5.649   3.404 -0.4767  0.0358 -2.2449
  317DOPC  C31443731   2.455   5.628   3.545  0.2129 -0.2438 -0.8107
  317DOPC  H14X43732   2.515   5.572   3.619  1.7314  0.8725 -1.1545
  317DOPC  H14Y43733   2.464   5.735   3.574 -0.0447 -0.4082 -0.1082
  317DOPC  C31543734   2.308   5.598   3.566 -0.6077 -0.0900  0.4901
  317DOPC  H15X43735   2.286   5.489   3.554 -1.4479  0.1308 -0.1221
  317DOPC  H15Y43736   2.252   5.650   3.485  0.5620 -1.5687 -1.3930
  317DOPC  C31643737   2.256   5.647   3.703  0.4534  0.1377 -0.3985
  317DOPC  H16X43738   2.315   5.611   3.790  2.0193  0.6964 -1.1882
  317DOPC  H16Y43739   2.247   5.758   3.708  0.5922  0.1315  0.0455
  317DOPC  C31743740   2.111   5.594   3.728 -0.4054 -0.3760  0.3236
  317DOPC  H17X43741   2.053   5.657   3.656  1.5825 -1.4358 -2.3684
  317DOPC  H17Y43742   2.101   5.487   3.700 -0.2154 -0.4081  0.3848
  317DOPC  C31843743   2.070   5.627   3.874  0.3398  0.6761 -0.1326
  317DOPC  H18X43744   2.087   5.735   3.898  2.3843  0.5362 -0.7137
  317DOPC  H18Y43745   1.963   5.602   3.885  0.3986  0.1805 -0.6367
  317DOPC  H18Z43746   2.121   5.558   3.944 -0.3717 -0.0397 -0.3102
  318DOPC     N43747   8.952   5.857   1.476 -0.2324  0.6762  0.2502
  318DOPC   C1243748   8.949   5.779   1.607  0.0531  0.1833 -0.2831
  318DOPC  H12A43749   8.980   5.677   1.588  1.7948  1.0114 -2.1770
  318DOPC  H12B43750   8.850   5.775   1.650  0.3181 -0.2640  0.2955
  318DOPC   C1343751   8.854   5.797   1.372 -0.7723  0.0909 -0.0278
  318DOPC  H13A43752   8.758   5.793   1.422  0.6544 -2.4658  2.8354
  318DOPC  H13B43753   8.856   5.848   1.277  0.5933  1.2649  0.5962
  318DOPC  H13C43754   8.881   5.696   1.344 -1.8051  0.0963 -1.1179
  318DOPC   C1443755   9.088   5.870   1.410  0.5550 -0.0609 -0.3272
  318DOPC  H14A43756   9.102   5.961   1.353  1.0957  1.1189  1.5960
  318DOPC  H14B43757   9.164   5.863   1.486 -1.7208  1.1336  2.2275
  318DOPC  H14C43758   9.100   5.783   1.346  0.4927  0.5125 -1.1392
  318DOPC   C1543759   8.910   5.996   1.488 -0.8651  0.4893  0.4070
  318DOPC  H15A43760   8.822   6.004   1.551 -0.8708  3.0233  0.1808
  318DOPC  H15B43761   8.908   6.043   1.391 -0.6188 -0.0242  0.1481
  318DOPC  H15C43762   8.980   6.063   1.535  0.0937 -0.9213  1.0871
  318DOPC   C1143763   9.043   5.823   1.718  0.1309 -0.0795 -0.1909
  318DOPC  H11A43764   9.032   5.931   1.740  0.7413 -0.3736  1.7864
  318DOPC  H11B43765   9.011   5.790   1.819 -1.7507  1.2332 -0.3158
  318DOPC     P43766   9.241   5.653   1.706 -0.4846  0.4727  0.1210
  318DOPC   O1343767   9.389   5.666   1.696  0.4260  0.0486 -0.4127
  318DOPC   O1443768   9.176   5.555   1.621  0.2662  1.1128  0.4417
  318DOPC   O1243769   9.177   5.791   1.683 -0.5994 -0.4274  0.0643
  318DOPC   O1143770   9.206   5.614   1.857 -0.0216  0.5530 -0.0014
  318DOPC    C143771   9.267   5.688   1.964 -0.0313 -0.0356  0.5570
  318DOPC    HA43772   9.204   5.697   2.055  1.1821  1.6940  1.2810
  318DOPC    HB43773   9.281   5.792   1.927 -1.2775  0.6267  1.8673
  318DOPC    C243774   9.400   5.628   2.009 -0.4285  0.0761 -0.7494
  318DOPC    HS43775   9.462   5.612   1.917 -0.9911  1.4165 -1.3873
  318DOPC   O2143776   9.379   5.504   2.081  0.6603  0.1350 -0.3501
  318DOPC   C2143777   9.468   5.407   2.062 -0.5800  0.5166  0.3273
  318DOPC   O2243778   9.574   5.415   2.001  0.1404  0.0808 -0.1950
  318DOPC   C2243779   9.413   5.267   2.122 -1.0808  0.0907 -0.0677
  318DOPC   H2R43780   9.408   5.197   2.035  0.7951 -1.2859  0.8648
  318DOPC   H2S43781   9.309   5.283   2.157 -1.5151  1.0787 -1.6821
  318DOPC    C343782   9.481   5.730   2.093  0.0600 -0.1453 -0.2034
  318DOPC    HX43783   9.494   5.810   2.017 -0.0834 -0.2930 -0.3835
  318DOPC    HY43784   9.575   5.677   2.121 -0.3879 -1.7353 -1.5735
  318DOPC   O3143785   9.390   5.779   2.201  0.4616 -0.1289  0.8245
  318DOPC   C3143786   9.460   5.868   2.271 -0.0301 -0.5691 -0.4845
  318DOPC   O3243787   9.578   5.901   2.259  0.1262 -0.1210 -0.2644
  318DOPC   C3243788   9.358   5.923   2.371  0.0679  0.5021  0.3101
  318DOPC   H2X43789   9.321   6.021   2.334  1.0618  2.0064  2.9687
  318DOPC   H2Y43790   9.267   5.859   2.370  0.0614  0.4473 -2.3119
  318DOPC   C2343791   9.513   5.202   2.219  0.1163  0.4932  0.6632
  318DOPC   H3R43792   9.610   5.203   2.165  0.9976  1.1830  2.1939
  318DOPC   H3S43793   9.492   5.096   2.246  2.6239 -0.3162 -0.2617
  318DOPC   C2443794   9.525   5.272   2.347  0.4255 -0.4904  0.6182
  318DOPC   H4R43795   9.533   5.382   2.336 -2.5292 -0.3946 -2.0511
  318DOPC   H4S43796   9.613   5.236   2.404  0.8366 -0.3743  0.0709
  318DOPC   C2543797   9.396   5.261   2.432  0.4045  0.4362 -0.5604
  318DOPC   H5R43798   9.402   5.158   2.473  1.4315 -0.2315 -2.3070
  318DOPC   H5S43799   9.300   5.267   2.376  0.8344 -0.6528 -1.4663
  318DOPC   C2643800   9.405   5.352   2.549  0.1327 -0.0668  0.0002
  318DOPC   H6R43801   9.409   5.456   2.509  3.6639  0.1713  0.6287
  318DOPC   H6S43802   9.500   5.346   2.607 -0.0794  1.1822  0.5290
  318DOPC   C2743803   9.284   5.344   2.643  0.0874  1.0532 -0.2415
  318DOPC   H7R43804   9.279   5.236   2.671 -1.2271  0.2017 -3.3916
  318DOPC   H7S43805   9.187   5.358   2.591 -0.0058 -0.0449 -0.4056
  318DOPC   C2843806   9.304   5.441   2.755  0.3368 -0.0440  0.3239
  318DOPC   H8R43807   9.301   5.539   2.703  1.1952 -1.6237 -2.9981
  318DOPC   H8S43808   9.406   5.437   2.800  0.0037 -1.1663  1.0139
  318DOPC   C2943809   9.200   5.412   2.859  0.1140 -0.3004  0.5169
  318DOPC   H9R43810   9.100   5.385   2.820  0.5740  0.4893 -1.3306
  318DOPC  C21043811   9.221   5.384   2.990 -0.6452 -0.3485  0.1677
  318DOPC  H10R43812   9.138   5.342   3.047 -1.1568  0.3072 -0.0883
  318DOPC  C21143813   9.351   5.396   3.060 -0.5573 -0.2456 -0.2222
  318DOPC  H11R43814   9.437   5.407   2.990 -0.4318  1.7244  0.1731
  318DOPC  H11S43815   9.377   5.318   3.134 -0.2865  0.8385  0.8572
  318DOPC  C21243816   9.348   5.523   3.144  0.4744  0.7948  0.3487
  318DOPC  H12R43817   9.287   5.608   3.107  0.9379  1.1325  0.3565
  318DOPC  H12S43818   9.450   5.564   3.155  1.0244 -0.2193 -0.6710
  318DOPC  C21343819   9.301   5.484   3.291  0.2448 -0.1673 -0.3672
  318DOPC  H13R43820   9.375   5.411   3.330  0.6962  1.0533  1.1577
  318DOPC  H13S43821   9.207   5.424   3.285  0.4684 -0.5159 -0.3877
  318DOPC  C21443822   9.284   5.613   3.370 -0.1587  0.2420  0.3316
  318DOPC  H14R43823   9.209   5.680   3.324  0.8275 -0.2442 -2.1844
  318DOPC  H14S43824   9.380   5.668   3.364  0.1978 -0.3297  0.6661
  318DOPC  C21543825   9.239   5.583   3.508 -0.1628  0.3401 -0.9874
  318DOPC  H15R43826   9.309   5.505   3.546  1.4735  1.9033 -0.6378
  318DOPC  H15S43827   9.140   5.532   3.503  0.6497 -1.1993 -2.8900
  318DOPC  C21643828   9.231   5.708   3.608  0.2348  0.5784  0.6166
  318DOPC  H16R43829   9.160   5.780   3.563 -0.2416 -0.2263  0.0580
  318DOPC  H16S43830   9.330   5.758   3.597  1.6841 -2.4268 -1.7864
  318DOPC  C21743831   9.193   5.669   3.751  0.2170 -0.1633 -0.3433
  318DOPC  H17R43832   9.269   5.597   3.789 -0.6459 -0.8286  0.1813
  318DOPC  H17S43833   9.089   5.629   3.754 -0.7477  2.2229  2.0772
  318DOPC  C21843834   9.205   5.797   3.838 -0.0228 -0.6828 -0.2078
  318DOPC  H18R43835   9.150   5.878   3.787  1.1788  2.2460  2.8113
  318DOPC  H18S43836   9.309   5.834   3.839  0.1571 -1.0799 -1.7430
  318DOPC  H18T43837   9.172   5.778   3.943  0.0222  0.0437 -0.0628
  318DOPC   C3343838   9.419   5.945   2.508 -0.4863 -0.2534  0.2876
  318DOPC   H3X43839   9.337   5.985   2.572  1.0102 -0.3461  2.3537
  318DOPC   H3Y43840   9.493   6.026   2.490 -0.6822 -0.4029 -1.3446
  318DOPC   C3443841   9.475   5.819   2.579 -0.4429 -0.2316 -0.1316
  318DOPC   H4X43842   9.551   5.777   2.510  0.7854 -0.5055  1.3352
  318DOPC   H4Y43843   9.397   5.740   2.578 -2.1981  1.4282 -1.6023
  318DOPC   C3543844   9.534   5.839   2.720 -0.5979 -0.8488  0.5921
  318DOPC   H5X43845   9.622   5.906   2.708 -1.2355 -0.2093 -0.6457
  318DOPC   H5Y43846   9.565   5.739   2.756  3.0914 -1.5448 -3.5877
  318DOPC   C3643847   9.446   5.922   2.819 -0.0646  0.4255  0.4734
  318DOPC   H6X43848   9.499   5.929   2.917  1.0063 -0.2582 -0.0438
  318DOPC   H6Y43849   9.436   6.024   2.775 -2.1373  0.1223  0.1551
  318DOPC   C3743850   9.310   5.853   2.849 -0.1133 -0.3027  0.0161
  318DOPC   H7X43851   9.260   5.865   2.751 -1.4987 -1.4620  0.5516
  318DOPC   H7Y43852   9.331   5.745   2.862  1.0492  0.0896  1.8550
  318DOPC   C3843853   9.227   5.924   2.954  0.5937 -0.2702  0.0437
  318DOPC   H8X43854   9.122   5.887   2.946  0.5333 -0.2617  0.7584
  318DOPC   H8Y43855   9.214   6.033   2.932  0.9441 -0.1624  0.3672
  318DOPC   C3943856   9.276   5.899   3.094  0.1208 -0.1124  0.5360
  318DOPC   H9X43857   9.313   5.797   3.110 -1.1102 -0.6121  0.3258
  318DOPC  C31043858   9.281   5.993   3.192  0.7026  0.5106 -0.0748
  318DOPC  H10X43859   9.326   5.964   3.288 -2.3618 -0.5798  1.1593
  318DOPC  C31143860   9.231   6.125   3.179 -0.8808 -0.2646  0.5838
  318DOPC  H11X43861   9.164   6.144   3.093  1.2824  1.0636 -0.9018
  318DOPC  H11Y43862   9.318   6.191   3.160 -0.6818 -1.1247 -1.7986
  318DOPC  C31243863   9.142   6.170   3.302 -0.7781  0.6648  0.7906
  318DOPC  H12X43864   9.052   6.106   3.312  1.8870 -4.0974 -2.0771
  318DOPC  H12Y43865   9.113   6.274   3.274 -0.6385  0.9429  1.6438
  318DOPC  C31343866   9.215   6.181   3.438 -0.6117  0.1147  0.2273
  318DOPC  H13X43867   9.237   6.075   3.463  2.6270  0.3436 -1.1296
  318DOPC  H13Y43868   9.313   6.233   3.436  0.2922 -1.1418  3.7584
  318DOPC  C31443869   9.130   6.244   3.550  0.0135  0.2452  0.6908
  318DOPC  H14X43870   9.186   6.259   3.644 -0.1321  3.0111  0.4180
  318DOPC  H14Y43871   9.096   6.344   3.514 -0.4290 -0.4726 -1.0313
  318DOPC  C31543872   9.010   6.158   3.592 -0.4668 -0.9066  0.2296
  318DOPC  H15X43873   9.056   6.072   3.646 -1.0294 -0.7378  1.0040
  318DOPC  H15Y43874   8.951   6.128   3.503 -0.6345  2.4920 -0.9508
  318DOPC  C31643875   8.914   6.221   3.699 -0.3252 -0.3056  0.0303
  318DOPC  H16X43876   8.981   6.245   3.784 -1.0597  2.1941 -0.0075
  318DOPC  H16Y43877   8.877   6.320   3.663  1.4449  0.3238 -0.1893
  318DOPC  C31743878   8.785   6.130   3.727  0.1088 -0.4715  0.6686
  318DOPC  H17X43879   8.722   6.158   3.815  0.4809 -1.2753  1.2058
  318DOPC  H17Y43880   8.718   6.132   3.638  0.2205  1.3207  0.5863
  318DOPC  C31843881   8.803   5.981   3.759 -0.3401  0.3299  0.3832
  318DOPC  H18X43882   8.701   5.947   3.787 -0.9808  0.9857 -1.0595
  318DOPC  H18Y43883   8.835   5.932   3.665  3.9313 -0.0410  1.8319
  318DOPC  H18Z43884   8.879   5.954   3.836  0.3017 -0.2795 -0.4550
  319DOPC     N43885   8.783   6.661   2.089  0.0070 -0.2894  0.2366
  319DOPC   C1243886   8.816   6.551   2.177  0.1378  0.2207  0.3767
  319DOPC  H12A43887   8.902   6.505   2.130 -0.4530 -0.2161 -0.2990
  319DOPC  H12B43888   8.737   6.477   2.169 -1.0094  1.4398 -0.0061
  319DOPC   C1343889   8.741   6.610   1.953  0.1812  0.3392 -0.5040
  319DOPC  H13A43890   8.732   6.697   1.891 -1.4280  0.1228 -0.6207
  319DOPC  H13B43891   8.796   6.528   1.910  0.2468  0.6036 -0.9283
  319DOPC  H13C43892   8.642   6.566   1.963 -0.2056  0.9538 -1.5247
  319DOPC   C1443893   8.898   6.759   2.066 -0.3347  0.3305  0.0954
  319DOPC  H14A43894   8.876   6.844   2.003 -0.1099  0.1598 -0.2154
  319DOPC  H14B43895   8.922   6.802   2.162  1.9607  0.0950 -0.3125
  319DOPC  H14C43896   8.983   6.706   2.027 -1.6209 -0.9868 -1.0343
  319DOPC   C1543897   8.655   6.732   2.135  0.9500 -0.0499 -0.1543
  319DOPC  H15A43898   8.574   6.660   2.144  0.1753  0.9211  0.8385
  319DOPC  H15B43899   8.614   6.803   2.065  0.0660 -2.7743 -2.6344
  319DOPC  H15C43900   8.668   6.778   2.231  0.0989 -2.1872  1.0536
  319DOPC   C1143901   8.850   6.581   2.324  0.2382 -0.0375  0.0663
  319DOPC  H11A43902   8.765   6.635   2.372 -1.4443 -1.4880 -1.1508
  319DOPC  H11B43903   8.853   6.485   2.379  0.6893 -0.0106  0.0966
  319DOPC     P43904   9.111   6.582   2.340  0.1864  0.1509 -0.0600
  319DOPC   O1343905   9.204   6.687   2.384 -0.2613  0.0257  0.1738
  319DOPC   O1443906   9.134   6.509   2.213 -0.2244 -0.7106  0.1130
  319DOPC   O1243907   8.965   6.656   2.332 -0.5044  0.2522 -0.3565
  319DOPC   O1143908   9.093   6.480   2.469 -0.4834  0.3627  0.0992
  319DOPC    C143909   9.060   6.531   2.599  0.8701  0.2619 -0.1615
  319DOPC    HA43910   8.999   6.458   2.657  0.3567  1.8451  1.3803
  319DOPC    HB43911   8.989   6.616   2.588 -1.0104 -1.0884  0.9344
  319DOPC    C243912   9.186   6.569   2.681  0.0836 -0.1406 -0.0411
  319DOPC    HS43913   9.244   6.652   2.633 -0.0713 -0.3350 -0.5681
  319DOPC   O2143914   9.258   6.446   2.691 -0.3807 -0.3508  0.6406
  319DOPC   C2143915   9.382   6.458   2.737  0.3211  0.4078 -0.6260
  319DOPC   O2243916   9.440   6.558   2.780  0.4120 -0.2105 -0.5012
  319DOPC   C2243917   9.450   6.323   2.725  0.1585 -0.1405  0.7959
  319DOPC   H2R43918   9.464   6.318   2.615 -1.5602  1.1563  0.4620
  319DOPC   H2S43919   9.369   6.254   2.757 -0.5216  0.4519  0.3810
  319DOPC    C343920   9.135   6.613   2.821  0.7262  0.4739  0.3532
  319DOPC    HX43921   9.215   6.637   2.894 -0.0469 -0.6446  1.6072
  319DOPC    HY43922   9.088   6.522   2.863  2.2404 -0.9842 -0.9417
  319DOPC   O3143923   9.043   6.723   2.806 -0.1688  0.0910 -0.3693
  319DOPC   C3143924   9.094   6.847   2.782 -0.0390  0.1450 -0.2382
  319DOPC   O3243925   9.211   6.870   2.797  0.0196 -0.3337  0.4652
  319DOPC   C3243926   8.986   6.951   2.775 -0.4774 -0.5542 -0.1607
  319DOPC   H2X43927   9.031   7.043   2.731  0.2141 -1.2805 -1.0388
  319DOPC   H2Y43928   8.905   6.915   2.707 -1.8275  2.0086 -0.0096
  319DOPC   C2343929   9.572   6.307   2.816 -0.2177  0.3380  0.7420
  319DOPC   H3R43930   9.638   6.396   2.808 -0.6808  0.7387  1.3368
  319DOPC   H3S43931   9.633   6.218   2.787 -2.4321 -1.1324  0.3259
  319DOPC   C2443932   9.544   6.285   2.958 -0.4561  0.1957 -0.8230
  319DOPC   H4R43933   9.582   6.190   3.002  0.5594  0.9860  0.0565
  319DOPC   H4S43934   9.433   6.285   2.968 -0.4487  1.0453 -0.6976
  319DOPC   C2543935   9.568   6.403   3.050 -0.2604 -0.4784  0.0426
  319DOPC   H5R43936   9.556   6.505   3.008 -0.0258  0.6243  2.4617
  319DOPC   H5S43937   9.673   6.401   3.086 -0.1695 -2.8549 -0.2150
  319DOPC   C2643938   9.486   6.399   3.181  1.2261 -0.3136 -0.4528
  319DOPC   H6R43939   9.498   6.295   3.220  0.2687  0.0054  0.7502
  319DOPC   H6S43940   9.379   6.417   3.157  1.3674  2.6477  0.8016
  319DOPC   C2743941   9.537   6.499   3.289 -0.1049  0.2238  0.0782
  319DOPC   H7R43942   9.521   6.603   3.255  0.2434  0.3417  0.2802
  319DOPC   H7S43943   9.646   6.483   3.300 -0.0406 -0.1484 -0.9341
  319DOPC   C2843944   9.469   6.478   3.426  0.6185  0.8329  0.4783
  319DOPC   H8R43945   9.506   6.380   3.461 -0.6726  0.9155  2.2370
  319DOPC   H8S43946   9.362   6.460   3.401  0.8832  1.3530 -1.1028
  319DOPC   C2943947   9.494   6.585   3.520  0.3240  0.1615  0.3787
  319DOPC   H9R43948   9.468   6.681   3.474  1.8057 -0.6392 -2.3306
  319DOPC  C21043949   9.542   6.566   3.646 -0.4238  0.0612  0.0741
  319DOPC  H10R43950   9.550   6.658   3.707 -0.8583 -0.6352  1.2016
  319DOPC  C21143951   9.575   6.437   3.722  0.4473  0.0629 -0.3160
  319DOPC  H11R43952   9.525   6.350   3.674 -0.7080 -1.1082  2.7392
  319DOPC  H11S43953   9.533   6.449   3.824 -0.8099 -0.4083 -0.7571
  319DOPC  C21243954   9.724   6.399   3.734 -0.2721  0.3544 -0.1895
  319DOPC  H12R43955   9.780   6.482   3.782  0.7885 -0.8833  0.7906
  319DOPC  H12S43956   9.764   6.387   3.632 -0.1052 -0.7158 -0.0096
  319DOPC  C21343957   9.760   6.273   3.807 -0.3709  0.4429  0.6192
  319DOPC  H13R43958   9.669   6.214   3.829 -0.4268 -0.1630 -1.1188
  319DOPC  H13S43959   9.790   6.290   3.913 -1.0862 -0.8572  1.0611
  319DOPC  C21443960   9.869   6.193   3.743 -0.2594  0.2714 -0.4606
  319DOPC  H14R43961   9.949   6.259   3.704  0.6284 -0.5884 -0.1316
  319DOPC  H14S43962   9.822   6.155   3.649 -1.5122  1.0599 -0.1790
  319DOPC  C21543963   9.926   6.073   3.819 -0.8642  0.5475 -0.3138
  319DOPC  H15R43964   9.859   5.985   3.810 -0.0991  0.0095 -0.9341
  319DOPC  H15S43965   9.939   6.107   3.924 -0.1102 -0.6144 -0.0118
  319DOPC  C21643966  10.060   6.031   3.759 -0.5152  0.2222  1.0270
  319DOPC  H16R43967  10.105   5.960   3.831 -1.1283  0.3463  1.5492
  319DOPC  H16S43968  10.130   6.117   3.747  2.2711 -1.9805  0.5102
  319DOPC  C21743969  10.048   5.972   3.617  1.0511 -0.1595  0.5118
  319DOPC  H17R43970   9.991   6.042   3.553 -0.8341 -2.9505 -1.0332
  319DOPC  H17S43971   9.995   5.876   3.630 -0.9140  0.6916 -0.7256
  319DOPC  C21843972  10.184   5.958   3.548  0.0125 -0.1746  0.6836
  319DOPC  H18R43973  10.166   5.916   3.447  0.6960  3.4884 -1.1514
  319DOPC  H18S43974  10.257   5.895   3.604  2.3573  1.6892 -0.1052
  319DOPC  H18T43975  10.227   6.060   3.537 -3.4925  1.4890  0.8784
  319DOPC   C3343976   8.936   6.972   2.910  0.3504 -0.0452 -0.5115
  319DOPC   H3X43977   9.015   6.991   2.986 -0.1099 -3.8858  1.1157
  319DOPC   H3Y43978   8.887   6.879   2.946 -0.7872  0.1377 -1.4994
  319DOPC   C3443979   8.830   7.085   2.915  1.0080 -0.7600  0.6861
  319DOPC   H4X43980   8.732   7.054   2.875  1.1755 -1.0765  0.5197
  319DOPC   H4Y43981   8.865   7.173   2.856 -1.0548  0.6523  1.4336
  319DOPC   C3543982   8.799   7.132   3.053  0.0362  0.0192 -0.1631
  319DOPC   H5X43983   8.719   7.208   3.052  1.2117  1.2772 -0.7488
  319DOPC   H5Y43984   8.882   7.183   3.105  1.2965 -1.5074 -0.5758
  319DOPC   C3643985   8.753   7.009   3.140  0.2512 -0.4304 -0.4834
  319DOPC   H6X43986   8.689   6.931   3.093 -2.7240  0.1902  2.2006
  319DOPC   H6Y43987   8.849   6.961   3.169 -0.9761 -3.3388 -0.9016
  319DOPC   C3743988   8.698   7.066   3.274  0.8902  0.1183 -0.1765
  319DOPC   H7X43989   8.763   7.148   3.311  2.4867 -1.8190  1.5097
  319DOPC   H7Y43990   8.603   7.117   3.249  0.8949  0.9905  1.4715
  319DOPC   C3843991   8.675   6.975   3.393 -0.2295  0.7995 -0.3446
  319DOPC   H8X43992   8.616   6.888   3.358  0.4528  0.1542  0.0743
  319DOPC   H8Y43993   8.614   7.037   3.462  1.3237 -0.0140  1.8405
  319DOPC   C3943994   8.804   6.926   3.457  0.0765 -1.1194 -0.0000
  319DOPC   H9X43995   8.867   6.871   3.385 -0.2416 -0.1256 -1.0630
  319DOPC  C31043996   8.851   6.949   3.581 -0.0315 -0.4072 -0.7743
  319DOPC  H10X43997   8.952   6.914   3.607 -0.0121 -0.4779 -0.9407
  319DOPC  C31143998   8.772   7.015   3.692  0.4574 -0.2287  0.7170
  319DOPC  H11X43999   8.734   6.943   3.768 -2.6117 -0.4393 -0.8720
  319DOPC  H11Y44000   8.679   7.065   3.659 -0.9807 -3.3811 -0.3614
  319DOPC  C31244001   8.863   7.127   3.755  0.5028 -0.6559 -0.2121
  319DOPC  H12X44002   8.792   7.194   3.806 -0.0465 -0.7055 -0.8989
  319DOPC  H12Y44003   8.908   7.190   3.675 -0.9378 -0.4693 -0.9044
  319DOPC  C31344004   8.965   7.084   3.863 -0.3320  0.6643  0.8462
  319DOPC  H13X44005   8.919   7.006   3.928  1.2609  0.3814  1.6828
  319DOPC  H13Y44006   9.059   7.047   3.818 -1.5777 -0.4538 -0.9752
  319DOPC  C31444007   9.026   7.205   3.928  0.3832  0.1835 -0.0901
  319DOPC  H14X44008   9.059   7.279   3.852  1.5160 -0.1709  0.0418
  319DOPC  H14Y44009   8.948   7.254   3.990 -1.0674 -1.3492 -0.6459
  319DOPC  C31544010   9.140   7.162   4.019  0.1414  0.6768  0.2203
  319DOPC  H15X44011   9.198   7.245   4.064 -0.9842  1.6579 -0.0939
  319DOPC  H15Y44012   9.217   7.107   3.960 -0.1704 -3.2000  3.0591
  319DOPC  C31644013   9.089   7.059   4.124  0.4511 -0.5659  0.5359
  319DOPC  H16X44014   8.997   7.105   4.166  0.8213  1.0139 -0.3031
  319DOPC  H16Y44015   9.063   6.959   4.082 -0.5276 -1.4978  3.1370
  319DOPC  C31744016   9.186   7.038   4.245  0.1566 -0.2671  0.7074
  319DOPC  H17X44017   9.285   7.033   4.195  0.1565 -0.1634  0.6953
  319DOPC  H17Y44018   9.213   7.127   4.306  3.3312 -0.4578 -0.2693
  319DOPC  C31844019   9.163   6.913   4.329 -0.3232  0.5906 -0.0500
  319DOPC  H18X44020   9.063   6.921   4.378 -1.0348 -1.6882 -1.0125
  319DOPC  H18Y44021   9.175   6.822   4.267  0.3386  2.3385 -2.6971
  319DOPC  H18Z44022   9.251   6.904   4.396 -0.3383 -0.5930 -0.1755
  320DOPC     N44023   5.386   9.088   2.064 -0.2655  0.2217 -0.5328
  320DOPC   C1244024   5.342   8.983   2.158 -0.5560  0.4518  0.3003
  320DOPC  H12A44025   5.244   9.012   2.191 -1.0077 -0.4716 -0.1920
  320DOPC  H12B44026   5.399   8.983   2.251  2.4269 -1.9727 -1.3365
  320DOPC   C1344027   5.363   9.222   2.129 -0.4753 -0.3946 -0.2314
  320DOPC  H13A44028   5.419   9.292   2.069  0.1335  0.5467  1.3793
  320DOPC  H13B44029   5.258   9.249   2.129  0.1949  2.5347 -1.5832
  320DOPC  H13C44030   5.405   9.226   2.228  1.3672 -1.7456 -0.8992
  320DOPC   C1444031   5.304   9.098   1.934 -0.5361  0.0752  0.6198
  320DOPC  H14A44032   5.312   9.002   1.886  1.3932  0.7346 -0.4551
  320DOPC  H14B44033   5.199   9.117   1.951 -0.6405  0.4588 -0.4398
  320DOPC  H14C44034   5.339   9.179   1.873 -0.7306  0.5117  1.0808
  320DOPC   C1544035   5.526   9.083   2.025 -1.0195 -0.0752 -0.4711
  320DOPC  H15A44036   5.593   9.086   2.109 -0.6943  1.2858 -0.7557
  320DOPC  H15B44037   5.548   9.166   1.960 -0.7910  0.0836 -0.1903
  320DOPC  H15C44038   5.561   8.993   1.976 -1.4241  0.5455 -1.9753
  320DOPC   C1144039   5.346   8.848   2.096  0.2158  0.7168 -0.2382
  320DOPC  H11A44040   5.258   8.848   2.029  1.1446  1.5105 -1.5132
  320DOPC  H11B44041   5.439   8.840   2.036  0.5318  0.6035  0.2575
  320DOPC     P44042   5.454   8.720   2.304 -0.0787 -0.2387  0.0622
  320DOPC   O1344043   5.585   8.769   2.249  0.1282 -0.3569 -0.0356
  320DOPC   O1444044   5.455   8.583   2.343  0.1259  0.2854 -0.6990
  320DOPC   O1244045   5.333   8.742   2.197 -0.4084 -0.0591 -0.3719
  320DOPC   O1144046   5.400   8.813   2.424 -0.1360  0.0600  0.3951
  320DOPC    C144047   5.333   8.751   2.532  0.6049 -0.6225  0.5348
  320DOPC    HA44048   5.362   8.807   2.624  3.2757 -0.2894 -0.4035
  320DOPC    HB44049   5.375   8.652   2.560  0.1814 -0.6005  1.2676
  320DOPC    C244050   5.179   8.761   2.509  0.4375  0.3014  0.2264
  320DOPC    HS44051   5.137   8.705   2.423 -1.7152  1.1733  0.6477
  320DOPC   O2144052   5.155   8.903   2.519  0.1155 -0.0102  0.4319
  320DOPC   C2144053   5.068   8.953   2.430  0.4048  0.3101 -0.2698
  320DOPC   O2244054   5.015   8.893   2.337 -0.6520 -0.0195 -0.1977
  320DOPC   C2244055   5.032   9.096   2.466  0.3896  0.1452  0.0833
  320DOPC   H2R44056   5.061   9.163   2.383 -2.8724  2.2614  0.4866
  320DOPC   H2S44057   5.094   9.131   2.551  2.4093  1.1452 -1.7128
  320DOPC    C344058   5.102   8.687   2.625 -0.3083 -0.3492 -0.2975
  320DOPC    HX44059   4.993   8.711   2.626 -0.8592 -2.2283 -2.9495
  320DOPC    HY44060   5.137   8.723   2.724 -0.5565 -1.0618  0.0573
  320DOPC   O3144061   5.135   8.543   2.627 -0.2850  0.1867  0.3321
  320DOPC   C3144062   5.063   8.471   2.554 -0.4665  0.0984 -0.0274
  320DOPC   O3244063   4.972   8.506   2.483  0.4656  0.1800 -0.4584
  320DOPC   C3244064   5.094   8.326   2.585 -0.2108 -0.3929  0.8769
  320DOPC   H2X44065   5.202   8.308   2.566  0.1261  1.8320  0.4027
  320DOPC   H2Y44066   5.084   8.306   2.693 -2.2041  1.0785  1.0216
  320DOPC   C2344067   4.882   9.110   2.511 -0.6107 -0.3927  0.2385
  320DOPC   H3R44068   4.818   9.051   2.442  1.0065 -1.2927 -0.5523
  320DOPC   H3S44069   4.856   9.218   2.515 -2.7530 -0.8985  3.1251
  320DOPC   C2444070   4.851   9.060   2.655 -0.0224 -0.3926 -0.0499
  320DOPC   H4R44071   4.902   8.961   2.656  0.1278 -0.3130  0.8826
  320DOPC   H4S44072   4.741   9.049   2.668 -0.3336  0.7865 -1.3972
  320DOPC   C2544073   4.897   9.159   2.759 -0.5447 -0.8338 -0.0572
  320DOPC   H5R44074   4.814   9.228   2.782 -0.9650 -2.2953  3.3697
  320DOPC   H5S44075   4.985   9.208   2.711  1.0302 -2.3850  1.1337
  320DOPC   C2644076   4.945   9.097   2.896 -0.2442  0.2895  0.2919
  320DOPC   H6R44077   4.866   9.028   2.933  0.3601 -2.2785 -2.7420
  320DOPC   H6S44078   4.963   9.177   2.970  0.1778  0.7844 -0.3351
  320DOPC   C2744079   5.066   9.000   2.892  0.4341  0.4382 -0.7265
  320DOPC   H7R44080   5.163   9.053   2.877  0.1560  0.5900 -2.0509
  320DOPC   H7S44081   5.049   8.926   2.811 -1.2840  2.5518 -2.4107
  320DOPC   C2844082   5.082   8.922   3.026  0.1732  0.7831 -0.4921
  320DOPC   H8R44083   5.166   8.852   3.004  0.2315  0.5766  0.3749
  320DOPC   H8S44084   4.988   8.865   3.040  0.5243 -0.3270 -2.3158
  320DOPC   C2944085   5.100   8.992   3.155 -0.7123  0.4043 -0.4175
  320DOPC   H9R44086   5.026   9.067   3.187 -1.3592 -1.0202  1.5910
  320DOPC  C21044087   5.221   8.995   3.226  0.3053 -0.7677 -0.0629
  320DOPC  H10R44088   5.221   9.060   3.315 -1.0728 -1.4237  0.4457
  320DOPC  C21144089   5.347   8.920   3.203  0.1690  0.1498 -0.5630
  320DOPC  H11R44090   5.442   8.978   3.204 -0.8946  1.9601  1.0550
  320DOPC  H11S44091   5.336   8.863   3.108 -2.1718 -0.2412 -0.1104
  320DOPC  C21244092   5.351   8.820   3.325 -0.8797 -0.0080  0.4792
  320DOPC  H12R44093   5.439   8.754   3.308 -0.5889  0.2008  1.1728
  320DOPC  H12S44094   5.260   8.758   3.332  0.0724 -1.2517  2.7486
  320DOPC  C21344095   5.377   8.886   3.463 -0.4720 -0.3450  1.0751
  320DOPC  H13R44096   5.308   8.965   3.499 -0.0229 -0.0554  1.3025
  320DOPC  H13S44097   5.475   8.938   3.450 -1.6508  1.6404 -0.5071
  320DOPC  C21444098   5.391   8.790   3.587  0.0307 -0.4194  0.1605
  320DOPC  H14R44099   5.438   8.695   3.554 -0.4630 -0.4295 -0.5408
  320DOPC  H14S44100   5.291   8.777   3.633  0.0880 -1.4327  0.0241
  320DOPC  C21544101   5.481   8.851   3.694 -0.3010 -0.2605  0.8361
  320DOPC  H15R44102   5.441   8.948   3.734  1.8153  1.3843 -0.8008
  320DOPC  H15S44103   5.583   8.872   3.655 -0.8381  0.6965 -0.1108
  320DOPC  C21644104   5.494   8.748   3.813  0.6283 -0.1587 -0.4253
  320DOPC  H16R44105   5.483   8.655   3.754  1.4731 -0.6233  0.1410
  320DOPC  H16S44106   5.413   8.772   3.886  1.6259  3.5280 -0.3406
  320DOPC  C21744107   5.627   8.748   3.882 -0.0778 -0.5607  0.1152
  320DOPC  H17R44108   5.646   8.842   3.939  0.4670  0.3361 -1.4671
  320DOPC  H17S44109   5.712   8.747   3.811  0.5479  3.5237  0.5676
  320DOPC  C21844110   5.651   8.630   3.984  0.3695 -0.0530 -0.5695
  320DOPC  H18R44111   5.758   8.628   4.010  0.0730  0.3249  0.7399
  320DOPC  H18S44112   5.631   8.532   3.935  0.6380 -0.4418  0.0847
  320DOPC  H18T44113   5.583   8.644   4.071 -0.0899 -1.3642 -0.6910
  320DOPC   C3344114   5.015   8.219   2.503 -0.2574 -0.2309  0.2060
  320DOPC   H3X44115   5.082   8.133   2.484 -1.5379 -1.4352  0.9363
  320DOPC   H3Y44116   4.996   8.257   2.400 -1.1900  0.1450  0.5034
  320DOPC   C3444117   4.890   8.156   2.564 -0.2746 -0.2534  0.2758
  320DOPC   H4X44118   4.912   8.140   2.672 -2.5988 -1.4370  0.6397
  320DOPC   H4Y44119   4.870   8.053   2.526 -1.6054  0.0267  0.1747
  320DOPC   C3544120   4.767   8.246   2.549  0.2965  0.2268  0.0472
  320DOPC   H5X44121   4.740   8.255   2.442  1.5254  0.3388 -0.2613
  320DOPC   H5Y44122   4.791   8.350   2.578  1.6077  1.2574 -4.0705
  320DOPC   C3644123   4.638   8.205   2.628  0.0378  0.7053  0.2150
  320DOPC   H6X44124   4.670   8.214   2.734 -2.8489  0.5575  1.1862
  320DOPC   H6Y44125   4.566   8.288   2.607  1.1031  1.6712  0.2833
  320DOPC   C3744126   4.581   8.064   2.582 -0.0644  0.0354  0.0945
  320DOPC   H7X44127   4.582   8.075   2.472 -0.3871  4.1275  0.3364
  320DOPC   H7Y44128   4.653   7.993   2.629 -0.3191  0.4289  1.1220
  320DOPC   C3844129   4.441   8.021   2.642 -0.6432 -0.5986 -0.2812
  320DOPC   H8X44130   4.382   8.104   2.597  0.5116  0.3280 -0.1396
  320DOPC   H8Y44131   4.427   8.038   2.750 -2.1605  0.8426 -0.6678
  320DOPC   C3944132   4.411   7.875   2.609 -0.4596  0.1075 -0.4580
  320DOPC   H9X44133   4.498   7.809   2.610  0.0534  0.7107 -2.2064
  320DOPC  C31044134   4.291   7.816   2.596  0.0707  0.4471 -0.2895
  320DOPC  H10X44135   4.297   7.713   2.558  1.1380 -1.1140  3.6197
  320DOPC  C31144136   4.159   7.887   2.607 -0.2051  0.1416 -0.1208
  320DOPC  H11X44137   4.098   7.870   2.516 -0.8818 -1.7478  0.6306
  320DOPC  H11Y44138   4.178   7.996   2.616 -0.8102  0.2943 -0.6326
  320DOPC  C31244139   4.074   7.853   2.728  0.9457 -0.0103  0.2889
  320DOPC  H12X44140   4.058   7.743   2.730 -0.6932  0.1523 -1.1663
  320DOPC  H12Y44141   3.973   7.893   2.705  1.1810  1.1427  1.1676
  320DOPC  C31344142   4.133   7.903   2.859  0.0563 -0.0601 -0.5247
  320DOPC  H13X44143   4.235   7.865   2.882 -0.0231  0.2196  0.2828
  320DOPC  H13Y44144   4.146   8.012   2.845  0.9500  0.1267  1.5186
  320DOPC  C31444145   4.051   7.882   2.993 -0.1034  0.1592 -0.2870
  320DOPC  H14X44146   3.955   7.937   2.979  0.1252  0.8874  0.8808
  320DOPC  H14Y44147   4.045   7.771   3.004  1.1066  0.2040  1.0401
  320DOPC  C31544148   4.118   7.940   3.118  0.4618  0.5950 -0.2767
  320DOPC  H15X44149   4.155   8.043   3.099  0.2406  1.0776  1.6331
  320DOPC  H15Y44150   4.204   7.875   3.140 -0.1636 -0.7570 -1.6648
  320DOPC  C31644151   4.020   7.947   3.244  0.3832  0.0235  0.0372
  320DOPC  H16X44152   3.940   8.023   3.229 -1.0283 -0.9573  2.0853
  320DOPC  H16Y44153   3.961   7.853   3.246 -0.4398  0.3474 -3.3592
  320DOPC  C31744154   4.097   7.983   3.364 -0.3994 -0.6537  0.3311
  320DOPC  H17X44155   4.156   7.893   3.392 -1.4174 -0.3996  3.7321
  320DOPC  H17Y44156   4.163   8.071   3.349  0.3147 -0.8553  2.0397
  320DOPC  C31844157   4.007   8.010   3.488  0.4202 -0.0990 -0.5238
  320DOPC  H18X44158   3.950   8.104   3.475 -0.4931 -0.4797  0.5616
  320DOPC  H18Y44159   3.947   7.919   3.509  2.0643 -1.1655 -0.2441
  320DOPC  H18Z44160   4.070   8.019   3.579  2.3506 -1.8329 -1.5896
  321DOPC     N44161   6.751   5.717   1.781  0.4984 -0.2251  0.1867
  321DOPC   C1244162   6.710   5.736   1.927 -0.7314 -0.4325  0.1280
  321DOPC  H12A44163   6.607   5.765   1.914 -0.4155  0.0648 -1.4767
  321DOPC  H12B44164   6.768   5.818   1.966  0.2147  0.0927 -2.2588
  321DOPC   C1344165   6.892   5.697   1.756  0.5437  0.3660 -0.1856
  321DOPC  H13A44166   6.909   5.655   1.658  1.9717  0.1835  0.1228
  321DOPC  H13B44167   6.942   5.792   1.770 -1.3224  0.9963  3.3554
  321DOPC  H13C44168   6.934   5.631   1.830 -0.9734 -0.2428  0.1703
  321DOPC   C1444169   6.695   5.832   1.696 -0.0824 -0.3234  0.4736
  321DOPC  H14A44170   6.730   5.933   1.711  1.5555 -0.7931  0.1072
  321DOPC  H14B44171   6.733   5.810   1.597  4.1786  2.0007  1.3271
  321DOPC  H14C44172   6.588   5.825   1.689 -0.0889  0.7623 -1.4554
  321DOPC   C1544173   6.678   5.588   1.740  0.1454  0.1007 -0.1721
  321DOPC  H15A44174   6.697   5.496   1.793 -0.6327 -0.2306 -0.4560
  321DOPC  H15B44175   6.686   5.568   1.634  1.1811 -0.6707  0.0408
  321DOPC  H15C44176   6.570   5.591   1.747  0.0819 -0.8376 -0.5456
  321DOPC   C1144177   6.738   5.625   2.027 -0.5873 -0.2481  0.1172
  321DOPC  H11A44178   6.654   5.552   2.022 -1.2946  0.4499  1.1978
  321DOPC  H11B44179   6.836   5.579   2.004 -0.1862 -0.1201  1.4923
  321DOPC     P44180   6.636   5.716   2.245 -0.1624 -0.2804  0.0286
  321DOPC   O1344181   6.554   5.596   2.246  0.6689  0.5366 -0.0914
  321DOPC   O1444182   6.567   5.844   2.207 -0.2265  0.3447 -0.7974
  321DOPC   O1244183   6.763   5.690   2.156  0.3771 -0.1131 -0.3276
  321DOPC   O1144184   6.701   5.752   2.389 -0.2439  0.4875  0.3509
  321DOPC    C144185   6.811   5.662   2.437  0.0036 -0.1050 -0.0428
  321DOPC    HA44186   6.865   5.718   2.516 -2.2955  1.0333  0.7952
  321DOPC    HB44187   6.887   5.636   2.360  1.6152  0.3561  1.3473
  321DOPC    C244188   6.765   5.519   2.489  0.8197 -0.2499  0.3582
  321DOPC    HS44189   6.729   5.464   2.400  1.7877 -1.0087  0.4206
  321DOPC   O2144190   6.666   5.548   2.596  0.1136  0.0112 -0.1430
  321DOPC   C2144191   6.583   5.444   2.629 -0.7806  0.4406  0.3787
  321DOPC   O2244192   6.582   5.339   2.567 -0.0143 -0.5152 -0.1336
  321DOPC   C2244193   6.494   5.460   2.753 -0.3005  0.3614  0.5812
  321DOPC   H2R44194   6.514   5.554   2.807 -1.5391 -0.9114  3.4604
  321DOPC   H2S44195   6.515   5.378   2.825  0.3847 -1.5425 -1.6544
  321DOPC    C344196   6.879   5.423   2.532  0.4341 -1.1876  0.9461
  321DOPC    HX44197   6.957   5.448   2.457 -2.6761  0.4011 -2.0025
  321DOPC    HY44198   6.823   5.328   2.520 -2.2047  0.2544  1.2359
  321DOPC   O3144199   6.927   5.451   2.669 -0.3351 -0.6311  0.4992
  321DOPC   C3144200   6.888   5.362   2.761 -0.1274 -0.7769 -0.0935
  321DOPC   O3244201   6.821   5.262   2.739 -0.0397  0.3192 -0.0437
  321DOPC   C3244202   6.942   5.411   2.899 -0.1226  0.0187 -0.4379
  321DOPC   H2X44203   6.995   5.507   2.878 -0.9603  0.7965  0.8821
  321DOPC   H2Y44204   6.860   5.443   2.966 -0.2338 -1.8464  0.3679
  321DOPC   C2344205   6.342   5.452   2.719  0.2071 -0.9767 -0.7604
  321DOPC   H3R44206   6.320   5.373   2.644 -0.4214  1.3435 -3.1648
  321DOPC   H3S44207   6.314   5.550   2.675 -1.5560 -1.3329 -0.5055
  321DOPC   C2444208   6.259   5.435   2.851  0.4621  0.0900  1.0896
  321DOPC   H4R44209   6.267   5.333   2.894 -0.7236 -0.7766 -0.6242
  321DOPC   H4S44210   6.152   5.435   2.819  0.4473 -0.6025  1.1174
  321DOPC   C2544211   6.278   5.548   2.954  0.0856 -0.0475  0.3861
  321DOPC   H5R44212   6.267   5.632   2.882  0.5702 -0.4700 -0.1932
  321DOPC   H5S44213   6.381   5.558   2.993  0.8561 -2.0119 -0.9754
  321DOPC   C2644214   6.173   5.566   3.068 -0.3201  0.5651  0.4196
  321DOPC   H6R44215   6.201   5.506   3.157  0.4779  0.2741 -0.0226
  321DOPC   H6S44216   6.081   5.528   3.019 -0.7649 -1.4759  2.6460
  321DOPC   C2744217   6.160   5.712   3.119 -0.0942  0.0507  0.5430
  321DOPC   H7R44218   6.139   5.777   3.032 -1.6261  0.9909  1.5637
  321DOPC   H7S44219   6.259   5.736   3.162 -0.3245 -1.9944  2.3777
  321DOPC   C2844220   6.040   5.734   3.210  0.5240  0.0980  0.4071
  321DOPC   H8R44221   6.048   5.835   3.256  0.4917  1.0712 -1.5872
  321DOPC   H8S44222   6.035   5.651   3.283 -0.0996  0.3244  0.6291
  321DOPC   C2944223   5.918   5.721   3.123  0.3895 -0.5881  0.2677
  321DOPC   H9R44224   5.917   5.782   3.031 -2.2362 -2.1619 -0.8627
  321DOPC  C21044225   5.807   5.647   3.148 -0.5438 -0.1594 -0.1619
  321DOPC  H10R44226   5.726   5.642   3.074 -2.1428  2.8247  1.1763
  321DOPC  C21144227   5.787   5.558   3.268  0.0977  0.1076  0.3024
  321DOPC  H11R44228   5.886   5.516   3.296 -0.9264 -2.2479  0.5564
  321DOPC  H11S44229   5.722   5.476   3.232  1.5682 -0.4017 -1.3702
  321DOPC  C21244230   5.737   5.612   3.405  0.0211 -0.3557  0.0412
  321DOPC  H12R44231   5.654   5.683   3.381 -0.6074 -0.6904  1.1377
  321DOPC  H12S44232   5.818   5.673   3.450 -2.2659  2.9034  0.0907
  321DOPC  C21344233   5.677   5.493   3.486 -0.2037 -0.2097 -0.6608
  321DOPC  H13R44234   5.622   5.425   3.418 -0.0668 -2.1513  1.0511
  321DOPC  H13S44235   5.607   5.538   3.560 -1.2135  1.1950 -2.4047
  321DOPC  C21444236   5.786   5.417   3.567 -0.3894 -0.3546 -0.3104
  321DOPC  H14R44237   5.749   5.394   3.669 -0.0685 -0.3727 -0.1974
  321DOPC  H14S44238   5.878   5.474   3.590  0.5646 -0.3778 -3.5052
  321DOPC  C21544239   5.827   5.286   3.504 -0.4627 -0.3044  0.4667
  321DOPC  H15R44240   5.898   5.317   3.425 -0.5343  1.0631  0.9041
  321DOPC  H15S44241   5.738   5.244   3.453 -0.4486  0.4676 -0.2070
  321DOPC  C21644242   5.886   5.186   3.596 -0.4238  0.1446  0.4965
  321DOPC  H16R44243   5.821   5.132   3.668  0.0063 -1.2116 -0.0868
  321DOPC  H16S44244   5.967   5.237   3.653 -0.9795  0.8198  0.6846
  321DOPC  C21744245   5.955   5.070   3.513 -0.6988 -0.0740 -0.1398
  321DOPC  H17R44246   6.027   5.117   3.443  0.0777 -0.2666  0.5025
  321DOPC  H17S44247   5.873   5.018   3.460  0.2219 -1.8491  0.1034
  321DOPC  C21844248   6.027   4.966   3.600 -0.0521  0.0936 -0.0314
  321DOPC  H18R44249   5.949   4.901   3.645 -0.1302  0.8623  0.9756
  321DOPC  H18S44250   6.086   5.030   3.669  1.3510  2.5823 -3.2645
  321DOPC  H18T44251   6.097   4.917   3.528 -0.0400  0.5002 -0.3048
  321DOPC   C3344252   7.031   5.308   2.971  0.7528  0.4532  0.1581
  321DOPC   H3X44253   7.119   5.299   2.905  0.1592  2.7810 -1.0436
  321DOPC   H3Y44254   6.975   5.212   2.983  1.2645  0.3116  1.6768
  321DOPC   C3444255   7.075   5.343   3.115  0.1980 -0.0542 -0.3027
  321DOPC   H4X44256   7.109   5.252   3.168 -2.0331 -0.3558  0.7488
  321DOPC   H4Y44257   6.981   5.381   3.161  0.0778 -1.0519  0.3034
  321DOPC   C3544258   7.177   5.460   3.128 -0.3247  0.3155  0.1301
  321DOPC   H5X44259   7.139   5.554   3.082 -1.7458 -0.4374 -0.2959
  321DOPC   H5Y44260   7.270   5.419   3.082 -0.7191  1.6783 -2.0424
  321DOPC   C3644261   7.219   5.491   3.274 -0.0324  1.2672 -0.1847
  321DOPC   H6X44262   7.139   5.540   3.334  0.6884 -1.6087  3.5611
  321DOPC   H6Y44263   7.227   5.391   3.323 -0.3882 -0.2600 -3.0534
  321DOPC   C3744264   7.343   5.581   3.281  0.5489  0.5150  0.9630
  321DOPC   H7X44265   7.419   5.517   3.231  0.0443  1.2571 -0.8324
  321DOPC   H7Y44266   7.320   5.673   3.223 -1.3951 -0.9418 -0.7303
  321DOPC   C3844267   7.379   5.618   3.424  0.3519 -0.3368  0.1742
  321DOPC   H8X44268   7.391   5.526   3.486 -0.7265  0.3330  1.4419
  321DOPC   H8Y44269   7.288   5.665   3.468  0.7296  1.1909 -0.5960
  321DOPC   C3944270   7.500   5.704   3.449  0.3951 -0.3311 -0.1041
  321DOPC   H9X44271   7.588   5.678   3.388 -0.2092 -1.3454 -0.5506
  321DOPC  C31044272   7.511   5.809   3.540 -0.7191  0.7707 -0.1642
  321DOPC  H10X44273   7.604   5.867   3.534  1.3076 -2.4196 -2.2172
  321DOPC  C31144274   7.401   5.854   3.623 -0.0529 -0.2469  0.3072
  321DOPC  H11X44275   7.307   5.796   3.632 -0.6936  0.7111  0.0120
  321DOPC  H11Y44276   7.357   5.949   3.586  1.5498  1.0622  1.6290
  321DOPC  C31244277   7.430   5.874   3.775 -0.0459  0.2189  0.8032
  321DOPC  H12X44278   7.330   5.900   3.817 -0.8815 -1.2374 -0.1616
  321DOPC  H12Y44279   7.500   5.958   3.791  1.9282 -1.6004  2.2601
  321DOPC  C31344280   7.479   5.742   3.844 -0.3681  0.0207  0.6707
  321DOPC  H13X44281   7.392   5.676   3.860 -2.3819  2.3249 -0.1866
  321DOPC  H13Y44282   7.560   5.697   3.781  0.1658  0.4198  1.0605
  321DOPC  C31444283   7.534   5.777   3.982 -0.8283  0.5692 -0.5158
  321DOPC  H14X44284   7.603   5.864   3.975  2.2317 -1.5228  1.2311
  321DOPC  H14Y44285   7.456   5.807   4.055 -1.0107 -1.8018  0.3426
  321DOPC  C31544286   7.634   5.672   4.039  0.6225 -0.2536  0.1101
  321DOPC  H15X44287   7.731   5.674   3.986 -0.0676 -2.1309 -1.3492
  321DOPC  H15Y44288   7.588   5.571   4.041 -0.5767  0.1928  4.0294
  321DOPC  C31644289   7.678   5.726   4.178 -0.5941  0.0117 -0.5689
  321DOPC  H16X44290   7.731   5.821   4.153 -1.1426 -0.0244 -1.9654
  321DOPC  H16Y44291   7.595   5.756   4.245 -0.0416  0.1080  0.0816
  321DOPC  C31744292   7.777   5.641   4.253  0.2918  0.3068 -0.1260
  321DOPC  H17X44293   7.871   5.634   4.194 -0.0154 -0.0717 -0.5742
  321DOPC  H17Y44294   7.801   5.693   4.348  0.6924 -3.8337  2.2774
  321DOPC  C31844295   7.734   5.497   4.287 -0.5693  0.2668 -0.5988
  321DOPC  H18X44296   7.632   5.491   4.329 -0.2334 -1.4976  0.0635
  321DOPC  H18Y44297   7.723   5.431   4.198  1.2193 -0.5298 -0.2765
  321DOPC  H18Z44298   7.798   5.446   4.361 -1.0005 -0.5002 -0.7443
  322DOPC     N44299   6.565  11.472   2.263 -0.1834 -0.2375 -0.5908
  322DOPC   C1244300   6.575  11.333   2.315  0.1213  0.3602  0.7407
  322DOPC  H12A44301   6.539  11.339   2.417 -0.1959  1.4083  0.5793
  322DOPC  H12B44302   6.676  11.298   2.328 -0.4684 -1.7266  0.0237
  322DOPC   C1344303   6.619  11.497   2.133  0.1451 -0.2235 -0.3591
  322DOPC  H13A44304   6.624  11.602   2.109 -2.5854  0.1753  0.4891
  322DOPC  H13B44305   6.712  11.444   2.117 -0.1703 -0.1603 -2.7910
  322DOPC  H13C44306   6.563  11.460   2.048 -0.0937  0.0874 -0.3389
  322DOPC   C1444307   6.626  11.566   2.371  0.3458  0.6141  0.8061
  322DOPC  H14A44308   6.734  11.569   2.379  0.4734 -1.0633 -0.0123
  322DOPC  H14B44309   6.597  11.668   2.349 -2.8953  0.4043  3.3310
  322DOPC  H14C44310   6.569  11.554   2.462 -3.1639  0.4995 -1.2288
  322DOPC   C1544311   6.418  11.509   2.260 -0.4778 -0.3006  0.5211
  322DOPC  H15A44312   6.366  11.429   2.211 -0.2698 -0.6786  0.9089
  322DOPC  H15B44313   6.419  11.596   2.196  3.7953 -0.1994  0.3937
  322DOPC  H15C44314   6.379  11.537   2.357  0.0911 -1.1077  0.9956
  322DOPC   C1144315   6.503  11.216   2.245 -0.2292 -0.3440  0.1076
  322DOPC  H11A44316   6.393  11.229   2.248 -0.3970 -1.6024 -0.0731
  322DOPC  H11B44317   6.536  11.238   2.141  2.5852  0.3682  1.0412
  322DOPC     P44318   6.696  11.033   2.243  0.3491  0.2240  0.0322
  322DOPC   O1344319   6.799  11.127   2.295  0.4160  0.1183  0.7292
  322DOPC   O1444320   6.682  10.995   2.107 -0.3219 -0.1422 -0.7218
  322DOPC   O1244321   6.553  11.086   2.290 -0.3890  0.1882  0.2569
  322DOPC   O1144322   6.707  10.899   2.326  0.0889 -0.5075  0.1853
  322DOPC    C144323   6.605  10.819   2.382  0.3770  0.0246  0.1653
  322DOPC    HA44324   6.593  10.725   2.323 -2.8557 -0.3697  1.2557
  322DOPC    HB44325   6.508  10.872   2.394  0.1485 -0.2030 -0.6476
  322DOPC    C244326   6.648  10.775   2.520  0.2447 -0.2346  0.1021
  322DOPC    HS44327   6.564  10.715   2.561 -1.5824  1.0660 -1.5653
  322DOPC   O2144328   6.682  10.890   2.600 -0.7547 -0.3249 -0.1732
  322DOPC   C2144329   6.587  10.936   2.670 -0.5264  0.1080  0.5435
  322DOPC   O2244330   6.469  10.918   2.654 -0.1810  0.0842 -0.0679
  322DOPC   C2244331   6.643  11.020   2.779 -0.0563  1.1042  0.5197
  322DOPC   H2R44332   6.680  11.120   2.747 -1.0116  0.9436 -1.1557
  322DOPC   H2S44333   6.732  10.961   2.809 -0.3738 -0.5689 -1.6060
  322DOPC    C344334   6.764  10.679   2.514 -0.8886 -1.2751  0.3152
  322DOPC    HX44335   6.849  10.730   2.464 -0.3424 -1.4997  0.9989
  322DOPC    HY44336   6.738  10.599   2.441  0.7691 -0.4047 -1.3065
  322DOPC   O3144337   6.806  10.611   2.637 -1.0978 -0.2173 -0.6119
  322DOPC   C3144338   6.924  10.653   2.689  0.5783  1.0198 -0.4748
  322DOPC   O3244339   7.010  10.716   2.629  0.4669 -0.6758  0.8133
  322DOPC   C3244340   6.944  10.604   2.830 -0.3502 -0.4119  0.0313
  322DOPC   H2X44341   6.982  10.500   2.833  2.2743  0.4491 -0.4250
  322DOPC   H2Y44342   7.031  10.661   2.869  0.8950 -1.5893 -0.9287
  322DOPC   C2344343   6.535  11.047   2.883  0.0813  0.7114  0.1435
  322DOPC   H3R44344   6.433  11.057   2.842  0.0468  5.1793  0.7813
  322DOPC   H3S44345   6.548  11.146   2.932 -1.9170  1.9628 -1.7163
  322DOPC   C2444346   6.526  10.933   2.985  0.5113  0.1830  0.4421
  322DOPC   H4R44347   6.628  10.902   3.016 -0.2004  0.6666  3.7321
  322DOPC   H4S44348   6.484  10.847   2.929 -0.1843 -0.8222  2.3896
  322DOPC   C2544349   6.451  10.957   3.118 -0.1709  0.0929  0.5507
  322DOPC   H5R44350   6.474  11.061   3.151  0.1890  0.2482 -0.1629
  322DOPC   H5S44351   6.491  10.881   3.189  1.2269  0.5710  0.3059
  322DOPC   C2644352   6.306  10.935   3.087  0.0660  0.2935  0.0858
  322DOPC   H6R44353   6.284  10.832   3.053  0.4670  0.5686 -1.0443
  322DOPC   H6S44354   6.276  10.991   2.996  1.4565 -2.2383 -2.0968
  322DOPC   C2744355   6.212  10.970   3.199 -0.9412 -0.9314  0.5562
  322DOPC   H7R44356   6.219  11.076   3.233  2.7291 -0.5817 -0.8321
  322DOPC   H7S44357   6.228  10.907   3.289 -0.0990  0.2995  1.2968
  322DOPC   C2844358   6.058  10.968   3.166  0.8116 -0.6258 -0.7307
  322DOPC   H8R44359   6.043  11.008   3.064 -0.8305  0.9031  0.0486
  322DOPC   H8S44360   6.006  11.041   3.231  2.1311 -0.3905  0.1036
  322DOPC   C2944361   6.003  10.830   3.175  0.4257  0.6587 -0.0370
  322DOPC   H9R44362   6.044  10.757   3.105 -1.0393  1.2525 -1.6041
  322DOPC  C21044363   5.910  10.789   3.264  0.0025  0.8709  0.0043
  322DOPC  H10R44364   5.867  10.688   3.253 -1.1293  1.3548 -0.2425
  322DOPC  C21144365   5.851  10.884   3.371 -0.5953  0.0730  0.2936
  322DOPC  H11R44366   5.751  10.927   3.350 -0.1273  0.6518 -0.8422
  322DOPC  H11S44367   5.926  10.961   3.400 -0.4701  0.1336 -0.1863
  322DOPC  C21244368   5.841  10.784   3.488 -0.9611 -0.5190 -0.1815
  322DOPC  H12R44369   5.833  10.676   3.463 -0.4359 -0.2751 -1.5462
  322DOPC  H12S44370   5.749  10.807   3.545 -1.1839  0.4642 -0.8900
  322DOPC  C21344371   5.955  10.808   3.594 -0.1945 -0.4490  0.0913
  322DOPC  H13R44372   5.920  10.898   3.648 -2.8012  1.1054 -3.7481
  322DOPC  H13S44373   6.045  10.826   3.532 -0.5053  1.7100  0.2000
  322DOPC  C21444374   5.982  10.706   3.707  0.0010 -1.1478  0.4703
  322DOPC  H14R44375   6.050  10.762   3.774 -0.1477  0.2747 -0.5161
  322DOPC  H14S44376   6.037  10.618   3.669 -3.0968 -2.6351 -0.9898
  322DOPC  C21544377   5.860  10.666   3.790 -0.5645 -0.0845 -0.0464
  322DOPC  H15R44378   5.775  10.616   3.738 -0.5924 -1.5042  1.2784
  322DOPC  H15S44379   5.815  10.759   3.832  2.5534  0.7294  1.8074
  322DOPC  C21644380   5.904  10.577   3.903  0.0291  0.1589 -0.1764
  322DOPC  H16R44381   5.990  10.512   3.879  0.0308  0.0081  0.2419
  322DOPC  H16S44382   5.824  10.503   3.925 -0.4509  1.1104  1.4750
  322DOPC  C21744383   5.954  10.641   4.031 -0.0661 -0.5446 -0.5936
  322DOPC  H17R44384   5.868  10.692   4.080 -0.1673 -1.2680  0.0096
  322DOPC  H17S44385   6.038  10.712   4.022 -1.1191  1.0415  1.2598
  322DOPC  C21844386   5.995  10.527   4.127 -0.0326 -0.1404  0.2081
  322DOPC  H18R44387   6.013  10.569   4.229 -0.4102  0.3211  0.0878
  322DOPC  H18S44388   6.098  10.498   4.099 -0.6230 -0.4533 -1.8191
  322DOPC  H18T44389   5.926  10.441   4.116  0.6949 -0.8416  1.0173
  322DOPC   C3344390   6.806  10.615   2.899  0.6447  0.0585  0.2538
  322DOPC   H3X44391   6.744  10.532   2.858  2.5830 -1.4501  0.2184
  322DOPC   H3Y44392   6.750  10.703   2.860  3.6272  1.4875 -1.0906
  322DOPC   C3444393   6.806  10.613   3.054  0.0375 -0.3168 -0.0965
  322DOPC   H4X44394   6.850  10.704   3.098 -1.0580 -0.0931  0.5717
  322DOPC   H4Y44395   6.869  10.524   3.077 -0.7760 -0.7947  0.3083
  322DOPC   C3544396   6.663  10.592   3.103  0.3616  0.1116  0.1808
  322DOPC   H5X44397   6.640  10.494   3.057 -0.2834 -0.8419  2.3793
  322DOPC   H5Y44398   6.591  10.672   3.073  0.5269  0.5332  0.8700
  322DOPC   C3644399   6.639  10.580   3.256 -0.1533  0.2576  0.1322
  322DOPC   H6X44400   6.694  10.489   3.289 -2.3114 -0.9155  0.6759
  322DOPC   H6Y44401   6.671  10.668   3.316  1.8282  0.8824 -1.7046
  322DOPC   C3744402   6.489  10.558   3.281 -0.3631 -0.0187  0.4795
  322DOPC   H7X44403   6.425  10.635   3.233 -1.1760 -0.8156  0.2582
  322DOPC   H7Y44404   6.462  10.468   3.222 -0.8479  1.9819 -2.5801
  322DOPC   C3844405   6.457  10.552   3.433 -0.0275  0.6846  0.3925
  322DOPC   H8X44406   6.538  10.482   3.465 -0.1367 -0.0350 -0.8168
  322DOPC   H8Y44407   6.359  10.502   3.446  0.9776 -1.5805 -0.2211
  322DOPC   C3944408   6.459  10.693   3.497 -0.3228 -0.0460 -0.5716
  322DOPC   H9X44409   6.488  10.776   3.432  1.7347 -0.8096 -0.7159
  322DOPC  C31044410   6.424  10.727   3.620  0.5697  0.2222  0.5359
  322DOPC  H10X44411   6.419  10.834   3.648 -2.0351  0.5498 -0.8856
  322DOPC  C31144412   6.372  10.632   3.728  0.0554 -1.0746 -0.5492
  322DOPC  H11X44413   6.336  10.531   3.699 -0.0006 -0.7110 -1.7866
  322DOPC  H11Y44414   6.281  10.678   3.772  0.9182 -2.1221  2.6819
  322DOPC  C31244415   6.471  10.608   3.843  0.2794 -0.0739  0.1700
  322DOPC  H12X44416   6.498  10.712   3.871 -1.1621  0.3164  0.1881
  322DOPC  H12Y44417   6.562  10.553   3.812  0.1765 -0.4210  0.4869
  322DOPC  C31344418   6.430  10.527   3.969 -0.1718 -0.4477 -0.4099
  322DOPC  H13X44419   6.488  10.559   4.059  0.5025  0.0521 -1.0140
  322DOPC  H13Y44420   6.324  10.549   3.991  0.2409  0.3251  0.9633
  322DOPC  C31444421   6.454  10.375   3.960 -0.5629 -0.3148  0.6646
  322DOPC  H14X44422   6.398  10.339   3.871 -1.3217  0.4355  0.8243
  322DOPC  H14Y44423   6.562  10.355   3.943 -0.1766  1.3602  1.0090
  322DOPC  C31544424   6.412  10.287   4.079  0.5191  1.0124 -0.0865
  322DOPC  H15X44425   6.421  10.184   4.039  1.9890  0.3463  1.8516
  322DOPC  H15Y44426   6.302  10.297   4.093  0.3510  0.3895 -0.9139
  322DOPC  C31644427   6.485  10.304   4.216  0.7693  0.0612  0.3683
  322DOPC  H16X44428   6.592  10.295   4.188  0.4646 -2.9659 -0.1352
  322DOPC  H16Y44429   6.464  10.410   4.241 -0.4260  0.2298 -1.1701
  322DOPC  C31744430   6.459  10.201   4.332  0.0175  0.1425  0.4646
  322DOPC  H17X44431   6.353  10.216   4.363  0.2841  1.9372  0.6107
  322DOPC  H17Y44432   6.465  10.097   4.293  2.0043  0.6103 -0.6103
  322DOPC  C31844433   6.569  10.211   4.439 -0.4713 -0.1894  0.0566
  322DOPC  H18X44434   6.660  10.183   4.382 -0.3993  1.2446 -0.5773
  322DOPC  H18Y44435   6.578  10.316   4.474 -1.7305  0.7842 -2.3095
  322DOPC  H18Z44436   6.554  10.144   4.527 -0.8552  1.9935  1.7569
  323DOPC     N44437   7.971   8.020   1.352  0.2477 -0.1226  0.0768
  323DOPC   C1244438   7.880   8.081   1.457 -0.1618 -0.1399  0.2194
  323DOPC  H12A44439   7.780   8.042   1.449  0.1940 -1.3198  1.2748
  323DOPC  H12B44440   7.871   8.187   1.435  0.5438  0.2052  1.5189
  323DOPC   C1344441   7.897   8.018   1.225  0.8429  0.3116  0.2643
  323DOPC  H13A44442   7.811   7.953   1.222 -0.5965  2.1848 -1.0425
  323DOPC  H13B44443   7.861   8.117   1.203  0.0655 -0.0777 -0.2820
  323DOPC  H13C44444   7.956   7.980   1.142 -3.1842 -1.8134 -1.9066
  323DOPC   C1444445   8.000   7.882   1.378  0.6479 -0.2797 -0.0052
  323DOPC  H14A44446   8.067   7.847   1.300  0.7831 -0.8385  0.3596
  323DOPC  H14B44447   8.048   7.868   1.473 -1.9192  1.9984  1.7568
  323DOPC  H14C44448   7.907   7.828   1.385  1.8931 -2.4422  0.6681
  323DOPC   C1544449   8.096   8.088   1.330 -0.3575  0.1381  0.5474
  323DOPC  H15A44450   8.154   8.032   1.258 -1.1440  0.2891 -0.2132
  323DOPC  H15B44451   8.154   8.085   1.421  0.5635 -0.2155 -0.0360
  323DOPC  H15C44452   8.092   8.196   1.321  2.3687  0.3907  1.2812
  323DOPC   C1144453   7.911   8.065   1.604  0.1142 -0.2855  0.5921
  323DOPC  H11A44454   7.823   8.093   1.666  0.3202  1.5637  0.0966
  323DOPC  H11B44455   7.934   7.961   1.636  0.3009 -0.5732 -0.4564
  323DOPC     P44456   8.097   8.143   1.768  0.0159 -0.2288  0.4213
  323DOPC   O1344457   8.206   8.247   1.768  0.3084  0.7510 -0.2516
  323DOPC   O1444458   8.138   8.000   1.796 -0.5740  0.0997 -0.2088
  323DOPC   O1244459   8.026   8.148   1.627  0.0785  0.2874 -0.1179
  323DOPC   O1144460   7.977   8.190   1.855  0.0195  0.1716 -0.4393
  323DOPC    C144461   7.995   8.285   1.960 -0.3032  0.4097  0.0611
  323DOPC    HA44462   7.896   8.335   1.972 -0.0562  0.4904  2.1399
  323DOPC    HB44463   8.074   8.357   1.931  1.0944 -0.6893  0.9976
  323DOPC    C244464   8.009   8.222   2.099 -0.2262  0.7313  0.3809
  323DOPC    HS44465   7.988   8.296   2.180  0.2873  1.4170 -0.1052
  323DOPC   O2144466   8.137   8.163   2.108 -0.0772 -0.2081 -0.5647
  323DOPC   C2144467   8.232   8.250   2.145  0.2118  0.0215 -0.0765
  323DOPC   O2244468   8.221   8.364   2.178 -0.3981 -0.1342  0.4110
  323DOPC   C2244469   8.361   8.183   2.113  0.5627  0.8052  0.1288
  323DOPC   H2R44470   8.431   8.254   2.064  0.5120  2.4674  2.3035
  323DOPC   H2S44471   8.342   8.090   2.054  0.3436  0.0451  1.3562
  323DOPC    C344472   7.907   8.105   2.117  0.8832 -0.0148 -0.2479
  323DOPC    HX44473   7.947   8.015   2.065 -0.1148  0.2553 -1.5658
  323DOPC    HY44474   7.817   8.141   2.062  1.5680  1.5082 -0.4061
  323DOPC   O3144475   7.886   8.068   2.258  0.0607  0.7796  0.1549
  323DOPC   C3144476   7.770   8.115   2.308 -0.6692  0.0895 -0.3720
  323DOPC   O3244477   7.715   8.219   2.275 -0.3955  0.3576 -0.6292
  323DOPC   C3244478   7.731   8.020   2.422 -0.2115  0.2672  0.0051
  323DOPC   H2X44479   7.622   8.004   2.408 -0.8564  2.0146  2.3678
  323DOPC   H2Y44480   7.781   7.923   2.404 -0.4758  0.6262 -3.2562
  323DOPC   C2344481   8.444   8.161   2.237 -0.2231 -0.1133 -0.3984
  323DOPC   H3R44482   8.526   8.088   2.218 -0.1900 -0.6084  1.4029
  323DOPC   H3S44483   8.380   8.111   2.314  0.2673  0.7102  0.5747
  323DOPC   C2444484   8.501   8.293   2.295 -0.0621  0.2099 -0.1547
  323DOPC   H4R44485   8.439   8.368   2.241 -1.3368 -0.2493  0.6313
  323DOPC   H4S44486   8.603   8.297   2.252 -0.7172 -0.3312 -1.8483
  323DOPC   C2544487   8.480   8.289   2.449 -0.3266  0.0557  0.9707
  323DOPC   H5R44488   8.527   8.205   2.504 -0.0778 -0.1413  0.4612
  323DOPC   H5S44489   8.372   8.280   2.471 -0.3158  0.6974  1.3311
  323DOPC   C2644490   8.531   8.422   2.511 -0.1596  0.2368  0.6885
  323DOPC   H6R44491   8.497   8.503   2.443 -0.2206 -0.7377 -0.4615
  323DOPC   H6S44492   8.641   8.424   2.495 -0.3428 -3.8496 -3.0219
  323DOPC   C2744493   8.486   8.447   2.656  0.2928 -0.4678 -0.0322
  323DOPC   H7R44494   8.376   8.454   2.654  0.2959 -0.4087 -2.0298
  323DOPC   H7S44495   8.524   8.540   2.703  0.7942  0.5032 -2.2234
  323DOPC   C2844496   8.524   8.335   2.764 -0.5835  0.9648  0.1280
  323DOPC   H8R44497   8.455   8.251   2.743  0.0528  0.5411 -0.2897
  323DOPC   H8S44498   8.505   8.375   2.866  1.6122  2.6862 -0.0600
  323DOPC   C2944499   8.665   8.293   2.759 -0.3954  0.5977 -0.5268
  323DOPC   H9R44500   8.735   8.375   2.782  0.5100 -0.4738  0.6782
  323DOPC  C21044501   8.705   8.161   2.753 -1.0850 -0.4716 -0.2151
  323DOPC  H10R44502   8.812   8.145   2.768 -1.5081 -2.4835  0.9895
  323DOPC  C21144503   8.617   8.037   2.735  0.2999 -0.3773 -0.4908
  323DOPC  H11R44504   8.579   8.029   2.631 -2.3220  0.3281  0.3187
  323DOPC  H11S44505   8.531   8.019   2.804 -0.5159  1.0720 -1.0735
  323DOPC  C21244506   8.716   7.926   2.766  0.1975 -0.2445  0.2002
  323DOPC  H12R44507   8.729   7.917   2.876 -1.4813 -0.6024  0.3936
  323DOPC  H12S44508   8.810   7.936   2.707 -0.8222 -1.1187 -1.6895
  323DOPC  C21344509   8.662   7.787   2.718 -0.0352  0.1239 -0.2892
  323DOPC  H13R44510   8.623   7.796   2.614  1.0258 -2.4156 -0.9887
  323DOPC  H13S44511   8.577   7.757   2.782 -0.3127 -0.0065 -0.7148
  323DOPC  C21444512   8.782   7.695   2.733 -0.6976  0.0125 -0.3894
  323DOPC  H14R44513   8.780   7.659   2.838 -1.1042  0.8337 -0.1085
  323DOPC  H14S44514   8.876   7.749   2.712 -0.9472  0.2470 -0.9294
  323DOPC  C21544515   8.762   7.581   2.621  0.0471 -0.0186  1.0044
  323DOPC  H15R44516   8.720   7.626   2.528  1.7323 -1.4922 -0.5440
  323DOPC  H15S44517   8.703   7.500   2.670  0.5599 -1.2991 -0.4158
  323DOPC  C21644518   8.892   7.518   2.581  0.2656 -0.0722  0.3756
  323DOPC  H16R44519   8.952   7.486   2.669 -0.9183 -2.1206  0.4931
  323DOPC  H16S44520   8.952   7.599   2.534  0.6984 -0.8992 -0.5614
  323DOPC  C21744521   8.877   7.393   2.495  0.3415 -0.3057 -0.2149
  323DOPC  H17R44522   8.849   7.424   2.392 -0.5447  0.6209  0.2875
  323DOPC  H17S44523   8.791   7.335   2.534 -0.7696  2.1049  1.1733
  323DOPC  C21844524   8.991   7.299   2.485  0.3747 -0.0508  0.1126
  323DOPC  H18R44525   9.015   7.262   2.587  0.8558  0.5194  0.2119
  323DOPC  H18S44526   9.085   7.343   2.445 -0.4749  2.2867  0.5662
  323DOPC  H18T44527   8.955   7.209   2.430  0.2019  0.1203 -0.0533
  323DOPC   C3344528   7.753   8.070   2.564 -0.4575 -0.0355 -0.4578
  323DOPC   H3X44529   7.731   8.179   2.566  1.8868  0.4849 -0.5021
  323DOPC   H3Y44530   7.862   8.069   2.583 -0.4674 -0.1422 -0.4160
  323DOPC   C3444531   7.684   7.991   2.671 -0.0118  0.1196 -1.1304
  323DOPC   H4X44532   7.691   7.886   2.634  0.9523 -0.3638  0.3711
  323DOPC   H4Y44533   7.574   8.002   2.679  0.0840 -0.2942  2.0874
  323DOPC   C3544534   7.746   7.982   2.810 -0.1468  0.1547 -0.6573
  323DOPC   H5X44535   7.783   8.082   2.842 -1.0833  0.3790 -0.2163
  323DOPC   H5Y44536   7.840   7.923   2.805 -1.0765 -1.8718  2.4493
  323DOPC   C3644537   7.666   7.927   2.930  1.0685  0.1872  0.3908
  323DOPC   H6X44538   7.580   7.994   2.952  0.4926 -0.4925  0.2492
  323DOPC   H6Y44539   7.628   7.826   2.903  0.3111  0.7982 -0.8900
  323DOPC   C3744540   7.748   7.914   3.059 -0.2846  0.5560 -0.2084
  323DOPC   H7X44541   7.697   7.857   3.139 -2.4299  2.6751  0.0478
  323DOPC   H7Y44542   7.842   7.859   3.036 -0.8294 -0.4408 -0.1151
  323DOPC   C3844543   7.770   8.053   3.125 -0.2282  0.5269  0.1182
  323DOPC   H8X44544   7.680   8.087   3.179 -1.3581  0.4050 -1.5858
  323DOPC   H8Y44545   7.787   8.125   3.042 -2.3948 -0.4202 -1.2639
  323DOPC   C3944546   7.890   8.047   3.202 -1.2408 -0.3350 -0.3269
  323DOPC   H9X44547   7.984   8.071   3.149 -0.6769 -2.7628 -0.5674
  323DOPC  C31044548   7.889   8.003   3.331 -0.2361 -0.3202 -0.0733
  323DOPC  H10X44549   7.981   7.999   3.390 -0.1078  1.4334 -0.1063
  323DOPC  C31144550   7.776   7.962   3.411 -0.3264 -0.5528  0.4501
  323DOPC  H11X44551   7.776   7.852   3.429 -0.5488 -0.4414  1.1328
  323DOPC  H11Y44552   7.677   7.989   3.369 -0.7488 -1.4668  0.8341
  323DOPC  C31244553   7.776   8.035   3.550  0.2501  0.0590  0.2048
  323DOPC  H12X44554   7.864   8.008   3.612  2.4310  1.2290 -2.2585
  323DOPC  H12Y44555   7.686   7.996   3.604 -0.7520 -0.6790 -1.8843
  323DOPC  C31344556   7.770   8.185   3.544  0.3988 -0.4938 -0.3973
  323DOPC  H13X44557   7.860   8.217   3.486  0.2228  2.2273  0.6926
  323DOPC  H13Y44558   7.679   8.223   3.493  1.7503  2.1475 -1.0261
  323DOPC  C31444559   7.769   8.249   3.683  0.3022  0.6744 -0.1105
  323DOPC  H14X44560   7.678   8.219   3.740  2.8267 -1.5139  3.1642
  323DOPC  H14Y44561   7.859   8.226   3.743  0.3086  1.2010  0.0888
  323DOPC  C31544562   7.766   8.404   3.691  0.1136  0.3410  0.2809
  323DOPC  H15X44563   7.680   8.433   3.627  0.8631  1.5663 -0.2223
  323DOPC  H15Y44564   7.851   8.454   3.639 -1.0401 -1.0999 -3.3220
  323DOPC  C31644565   7.762   8.452   3.834 -0.2787  0.3441 -0.1429
  323DOPC  H16X44566   7.664   8.425   3.879 -0.9715  2.3532 -0.3676
  323DOPC  H16Y44567   7.841   8.399   3.893  1.4091  0.9742 -1.7295
  323DOPC  C31744568   7.779   8.607   3.853  0.4127  0.9104  0.3672
  323DOPC  H17X44569   7.871   8.634   3.796  0.4914  0.3387  0.2202
  323DOPC  H17Y44570   7.696   8.654   3.796  1.2054 -1.3318 -2.8764
  323DOPC  C31844571   7.781   8.652   3.995  0.8849  0.0505 -0.4125
  323DOPC  H18X44572   7.856   8.589   4.047  0.9731  0.0591 -0.5312
  323DOPC  H18Y44573   7.799   8.761   3.994  1.5169 -0.0399  0.2641
  323DOPC  H18Z44574   7.682   8.635   4.043  1.4718 -1.0102  0.4787
  324DOPC     N44575   2.665   1.169   1.927 -0.0466  0.0654 -0.4109
  324DOPC   C1244576   2.674   1.253   2.051 -0.1633  0.3352  0.7472
  324DOPC  H12A44577   2.699   1.354   2.023  0.1936 -0.2768 -1.3500
  324DOPC  H12B44578   2.757   1.213   2.108  0.5415 -0.8038 -0.9640
  324DOPC   C1344579   2.791   1.170   1.846 -0.7818  0.1847  0.0115
  324DOPC  H13A44580   2.829   1.262   1.803 -0.5025 -0.2369 -0.6499
  324DOPC  H13B44581   2.872   1.133   1.906 -1.4849 -0.5505  0.5309
  324DOPC  H13C44582   2.781   1.099   1.765 -2.9354 -0.1029  0.4554
  324DOPC   C1444583   2.558   1.223   1.839 -0.1043 -0.0545  0.3600
  324DOPC  H14A44584   2.582   1.321   1.799 -1.3262 -0.2412 -0.9215
  324DOPC  H14B44585   2.544   1.159   1.753 -3.4979 -0.5932  1.1785
  324DOPC  H14C44586   2.466   1.242   1.891  1.0042  0.2987  2.2794
  324DOPC   C1544587   2.632   1.032   1.954  0.2081  0.3476  0.3245
  324DOPC  H15A44588   2.709   0.968   1.995  0.7591 -0.8173 -2.3033
  324DOPC  H15B44589   2.578   0.984   1.873 -1.6307  1.1935  0.9976
  324DOPC  H15C44590   2.554   1.027   2.029 -0.5749 -0.2481 -0.4871
  324DOPC   C1144591   2.550   1.272   2.148  0.1509 -0.5553 -0.1257
  324DOPC  H11A44592   2.588   1.309   2.245  1.9708 -0.2635 -0.9178
  324DOPC  H11B44593   2.478   1.346   2.107 -0.8194 -0.8396  1.0224
  324DOPC     P44594   2.322   1.133   2.186  0.2324  0.3063  0.2569
  324DOPC   O1344595   2.289   1.003   2.134 -0.0952  0.3078 -0.6479
  324DOPC   O1444596   2.247   1.251   2.132  0.3398  0.0927  0.2687
  324DOPC   O1244597   2.483   1.143   2.162 -0.2609 -0.6038  0.0442
  324DOPC   O1144598   2.306   1.120   2.347 -0.5881  0.0891 -0.1086
  324DOPC    C144599   2.382   1.201   2.444  0.1506  0.0821 -0.7434
  324DOPC    HA44600   2.342   1.304   2.441 -0.4450 -0.1663 -2.6862
  324DOPC    HB44601   2.490   1.207   2.419  0.0422 -1.6396 -1.8149
  324DOPC    C244602   2.374   1.130   2.583 -0.1400 -0.1186 -0.4270
  324DOPC    HS44603   2.271   1.091   2.596 -0.5689  1.2116  0.2827
  324DOPC   O2144604   2.413   1.212   2.687  0.0291 -0.3820  0.1966
  324DOPC   C2144605   2.322   1.290   2.742  0.3389  0.4961  0.5006
  324DOPC   O2244606   2.208   1.300   2.701  0.6110 -0.5402  0.5833
  324DOPC   C2244607   2.372   1.361   2.866 -0.4757 -0.2244  0.3679
  324DOPC   H2R44608   2.399   1.464   2.834 -0.4207 -0.6149 -0.8903
  324DOPC   H2S44609   2.457   1.303   2.907  0.2922  1.8523  1.9207
  324DOPC    C344610   2.460   0.999   2.596 -0.2021 -0.8373 -0.7407
  324DOPC    HX44611   2.567   1.032   2.592  0.5213 -2.3675  2.6654
  324DOPC    HY44612   2.452   0.930   2.509  4.0967 -1.7277 -0.6529
  324DOPC   O3144613   2.445   0.919   2.717  0.2348  0.3631  0.0195
  324DOPC   C3144614   2.487   0.793   2.708 -0.2022  0.2902 -0.2971
  324DOPC   O3244615   2.552   0.751   2.609 -0.2763 -0.2711 -0.0707
  324DOPC   C3244616   2.457   0.710   2.830 -0.8044  0.2056 -0.7107
  324DOPC   H2X44617   2.453   0.776   2.919 -3.3649 -0.4097 -0.2764
  324DOPC   H2Y44618   2.353   0.670   2.824 -0.5448 -0.7879  0.7621
  324DOPC   C2344619   2.271   1.369   2.976  0.2405 -0.0509 -0.7329
  324DOPC   H3R44620   2.164   1.370   2.947  0.3869  1.7051 -1.3616
  324DOPC   H3S44621   2.292   1.454   3.045  1.9567  0.4268 -1.7742
  324DOPC   C2444622   2.293   1.252   3.070 -0.4597  0.3907  0.2683
  324DOPC   H4R44623   2.391   1.271   3.118 -1.2487 -0.3005  2.2756
  324DOPC   H4S44624   2.289   1.155   3.017  2.3729  0.9398 -1.1450
  324DOPC   C2544625   2.189   1.248   3.190  0.0729 -0.7563  0.5902
  324DOPC   H5R44626   2.085   1.243   3.151  0.3119  0.5167 -0.2567
  324DOPC   H5S44627   2.191   1.347   3.240 -1.3713 -0.1462 -0.4952
  324DOPC   C2644628   2.216   1.141   3.293  0.3452  0.5594  0.7935
  324DOPC   H6R44629   2.321   1.150   3.328  0.9652 -0.5706 -0.6746
  324DOPC   H6S44630   2.192   1.044   3.246 -1.8075  1.3161  0.2230
  324DOPC   C2744631   2.118   1.149   3.412 -0.5502 -0.2235 -0.2361
  324DOPC   H7R44632   2.014   1.160   3.374 -0.6990  1.6175  0.5819
  324DOPC   H7S44633   2.136   1.242   3.470 -0.7058 -0.5401  0.3293
  324DOPC   C2844634   2.132   1.037   3.515 -0.3343 -0.0130 -0.7698
  324DOPC   H8R44635   2.082   1.077   3.606 -2.4672  0.4717 -2.0807
  324DOPC   H8S44636   2.240   1.024   3.535  0.0301  1.6726 -1.4526
  324DOPC   C2944637   2.060   0.910   3.481  0.3646  0.4541  0.1134
  324DOPC   H9R44638   1.963   0.928   3.433  0.9775 -0.2219 -1.4253
  324DOPC  C21044639   2.104   0.786   3.502 -0.3052  0.3734 -0.9377
  324DOPC  H10R44640   2.028   0.707   3.491 -1.4292  1.3405 -0.3584
  324DOPC  C21144641   2.224   0.742   3.582  0.1304  1.0586  0.2420
  324DOPC  H11R44642   2.188   0.670   3.659  0.5055 -0.6083 -1.0768
  324DOPC  H11S44643   2.282   0.819   3.637  1.0662 -0.9824  2.2844
  324DOPC  C21244644   2.315   0.669   3.492  0.0354  1.2222  0.2582
  324DOPC  H12R44645   2.262   0.584   3.443 -0.4142  0.9380  1.2175
  324DOPC  H12S44646   2.404   0.619   3.537 -1.4790 -1.2576  0.7088
  324DOPC  C21344647   2.379   0.762   3.388 -0.1026 -0.3188  1.3333
  324DOPC  H13R44648   2.300   0.818   3.333  1.7094 -1.0183 -2.2629
  324DOPC  H13S44649   2.438   0.703   3.314  1.3406  0.2040  2.0325
  324DOPC  C21444650   2.469   0.869   3.443 -0.6899  0.4348 -0.4373
  324DOPC  H14R44651   2.502   0.828   3.541  1.1569 -0.9191 -1.5616
  324DOPC  H14S44652   2.409   0.962   3.457  0.5185  0.9193  2.2864
  324DOPC  C21544653   2.606   0.910   3.365  0.5298  0.0641 -0.6772
  324DOPC  H15R44654   2.571   0.940   3.265  0.0814  0.8159 -0.3009
  324DOPC  H15S44655   2.675   0.824   3.348  1.6055  1.1840 -2.2151
  324DOPC  C21644656   2.698   1.000   3.441 -0.2530 -0.4027  0.0620
  324DOPC  H16R44657   2.634   1.089   3.461 -1.3902 -1.1270 -0.2965
  324DOPC  H16S44658   2.778   1.026   3.369  1.1758 -3.4150  0.4230
  324DOPC  C21744659   2.758   0.935   3.563  0.2810  0.2318  0.0351
  324DOPC  H17R44660   2.726   0.829   3.570 -1.2991  0.6516 -0.4833
  324DOPC  H17S44661   2.709   0.996   3.642 -0.9548 -0.1039 -0.4562
  324DOPC  C21844662   2.910   0.950   3.596 -0.2303  0.5142 -0.4423
  324DOPC  H18R44663   2.972   0.888   3.527  1.3268 -0.0885  1.3996
  324DOPC  H18S44664   2.929   0.918   3.701 -1.7311 -1.7784 -0.7817
  324DOPC  H18T44665   2.952   1.052   3.583  0.4297  0.2535 -0.4183
  324DOPC   C3344666   2.550   0.588   2.836 -0.2050 -0.5707 -0.0730
  324DOPC   H3X44667   2.649   0.639   2.836 -0.0038 -0.9507 -0.5596
  324DOPC   H3Y44668   2.552   0.515   2.752 -0.1389 -1.9780  1.1184
  324DOPC   C3444669   2.515   0.510   2.965  0.1519  0.0233 -0.1511
  324DOPC   H4X44670   2.499   0.580   3.049 -0.4483 -2.0188  1.5420
  324DOPC   H4Y44671   2.599   0.445   2.998 -0.0540 -0.3476 -0.3527
  324DOPC   C3544672   2.380   0.434   2.961 -0.5251 -0.2795  0.3302
  324DOPC   H5X44673   2.377   0.369   2.870 -1.7803 -0.0455  0.1836
  324DOPC   H5Y44674   2.294   0.504   2.965 -2.1762 -2.1871  0.2337
  324DOPC   C3644675   2.374   0.339   3.083  0.4609 -1.1831 -0.4115
  324DOPC   H6X44676   2.451   0.259   3.091 -1.2169 -2.7193  1.8286
  324DOPC   H6Y44677   2.371   0.403   3.173 -0.1940 -0.7676 -0.7207
  324DOPC   C3744678   2.236   0.268   3.086  0.2902  0.1500  0.1564
  324DOPC   H7X44679   2.195   0.231   2.989 -1.1319 -1.1308  1.2074
  324DOPC   H7Y44680   2.244   0.176   3.147 -0.6608 -0.1007 -0.0773
  324DOPC   C3844681   2.122   0.359   3.137  0.3702 -0.6211  0.3066
  324DOPC   H8X44682   2.090   0.425   3.053 -1.4109 -1.1996  0.4869
  324DOPC   H8Y44683   2.161   0.423   3.219 -0.0036 -1.5013  1.1804
  324DOPC   C3944684   2.007   0.287   3.202  0.4693 -0.4539  0.0220
  324DOPC   H9X44685   1.917   0.285   3.139 -2.4203 -2.1167  3.8400
  324DOPC  C31044686   1.999   0.246   3.331 -0.8535  0.3259  0.3213
  324DOPC  H10X44687   1.911   0.191   3.366 -0.2982  1.4535  3.8336
  324DOPC  C31144688   2.110   0.250   3.436  0.1349  0.9724  0.7100
  324DOPC  H11X44689   2.204   0.285   3.388 -0.5708  1.0049 -0.7135
  324DOPC  H11Y44690   2.116   0.149   3.483 -3.3324 -0.3133 -1.2346
  324DOPC  C31244691   2.065   0.344   3.549  0.1592 -0.2687  0.3601
  324DOPC  H12X44692   2.051   0.451   3.520  1.6005 -0.4715 -1.2542
  324DOPC  H12Y44693   2.147   0.349   3.623  0.5485 -0.8172 -0.0254
  324DOPC  C31344694   1.949   0.293   3.627 -0.0871  0.6738 -0.7272
  324DOPC  H13X44695   1.862   0.279   3.560 -0.7605 -0.1497  0.2882
  324DOPC  H13Y44696   1.981   0.194   3.665 -2.0619 -0.6579 -2.3275
  324DOPC  C31444697   1.919   0.388   3.741  0.3231  0.5059  0.6886
  324DOPC  H14X44698   1.844   0.343   3.809 -0.0799 -2.6063 -1.6148
  324DOPC  H14Y44699   2.018   0.400   3.789  1.1640  0.5277 -0.9855
  324DOPC  C31544700   1.863   0.532   3.705  0.2437  0.3570 -0.3545
  324DOPC  H15X44701   1.815   0.521   3.605  0.9323  0.8861 -0.7538
  324DOPC  H15Y44702   1.948   0.603   3.705  0.6631 -0.1412 -0.1882
  324DOPC  C31644703   1.753   0.587   3.794 -0.2951 -0.9728 -0.2767
  324DOPC  H16X44704   1.654   0.554   3.758  0.7203 -1.1896 -3.1051
  324DOPC  H16Y44705   1.770   0.550   3.898 -0.0005 -4.0982 -1.3167
  324DOPC  C31744706   1.754   0.743   3.796  0.6877  0.3440 -0.2792
  324DOPC  H17X44707   1.673   0.771   3.866  0.7879  1.5401 -0.6208
  324DOPC  H17Y44708   1.849   0.788   3.834  0.0216 -0.1607  2.1552
  324DOPC  C31844709   1.737   0.805   3.656 -0.0004  0.7723  0.1764
  324DOPC  H18X44710   1.659   0.754   3.596 -0.8693 -2.7542  3.8533
  324DOPC  H18Y44711   1.720   0.914   3.668 -0.2554  0.7114  0.3671
  324DOPC  H18Z44712   1.832   0.791   3.599 -0.9910  1.5700 -1.7652
  325DOPC     N44713  11.313   3.793   1.350  0.2601  0.4542  0.3134
  325DOPC   C1244714  11.315   3.831   1.497 -0.3896 -0.5002  0.0287
  325DOPC  H12A44715  11.251   3.918   1.506  1.3428  0.7450  0.9107
  325DOPC  H12B44716  11.414   3.868   1.521  0.2530 -2.0419 -0.1001
  325DOPC   C1344717  11.401   3.676   1.325 -0.0967 -0.6229  0.4799
  325DOPC  H13A44718  11.502   3.700   1.355 -0.8706 -0.0715  2.8339
  325DOPC  H13B44719  11.354   3.591   1.373 -0.5612 -0.6260  0.0246
  325DOPC  H13C44720  11.396   3.656   1.219 -0.3314 -1.8813  0.7187
  325DOPC   C1444721  11.377   3.907   1.274 -0.3026 -0.1310  0.2092
  325DOPC  H14A44722  11.469   3.938   1.322 -0.7903 -0.7756  1.6135
  325DOPC  H14B44723  11.398   3.894   1.169  2.2138 -1.5109  0.7937
  325DOPC  H14C44724  11.325   4.001   1.285  0.4152  0.4022 -0.7604
  325DOPC   C1544725  11.173   3.773   1.311  0.2590  0.0581  0.1203
  325DOPC  H15A44726  11.157   3.741   1.209 -1.0723 -0.0254  0.3387
  325DOPC  H15B44727  11.110   3.859   1.329 -0.1138 -0.3697  0.8688
  325DOPC  H15C44728  11.129   3.702   1.378  0.1877  0.0733  0.0891
  325DOPC   C1144729  11.265   3.722   1.602  0.3186 -0.2318 -0.8324
  325DOPC  H11A44730  11.331   3.633   1.598  0.6386 -0.0213 -0.2816
  325DOPC  H11B44731  11.279   3.766   1.703  0.6891 -1.5478 -0.2917
  325DOPC     P44732  11.020   3.772   1.666  0.1514  0.2451 -0.2732
  325DOPC   O1344733  10.890   3.706   1.656  0.6069 -0.3592  0.3450
  325DOPC   O1444734  11.029   3.915   1.619 -0.4947 -0.0972 -0.1588
  325DOPC   O1244735  11.128   3.683   1.590  0.0195  0.0449  0.0370
  325DOPC   O1144736  11.076   3.766   1.814  0.3488  0.0684 -0.0076
  325DOPC    C144737  11.065   3.639   1.884  0.5503  0.5097 -0.4389
  325DOPC    HA44738  11.148   3.567   1.871 -0.0865 -0.4626  0.6472
  325DOPC    HB44739  10.976   3.582   1.848  1.1156  0.0491 -1.1217
  325DOPC    C244740  11.050   3.661   2.036  0.6410 -0.0141 -0.4604
  325DOPC    HS44741  11.035   3.561   2.083  1.4981 -0.0382 -0.2025
  325DOPC   O2144742  10.941   3.748   2.062 -0.6451  0.7250 -0.2274
  325DOPC   C2144743  10.818   3.701   2.056  0.3054 -0.2939 -0.1064
  325DOPC   O2244744  10.792   3.583   2.053 -0.0587  0.3487  0.4665
  325DOPC   C2244745  10.718   3.821   2.042  0.0338 -0.1065 -0.5211
  325DOPC   H2R44746  10.613   3.788   2.058  0.2725  0.0017  1.4961
  325DOPC   H2S44747  10.730   3.853   1.936 -1.6849  1.4442 -0.2758
  325DOPC    C344748  11.186   3.717   2.089 -0.4311 -0.0138 -0.6280
  325DOPC    HX44749  11.212   3.806   2.028  0.0832  0.5156  0.3359
  325DOPC    HY44750  11.262   3.638   2.071 -2.4141 -2.2967  0.3498
  325DOPC   O3144751  11.173   3.750   2.232  0.0690 -0.6186 -0.7319
  325DOPC   C3144752  11.140   3.874   2.253 -0.5980 -0.2988 -0.1558
  325DOPC   O3244753  11.141   3.960   2.175 -0.0430 -0.5989 -0.3617
  325DOPC   C3244754  11.084   3.873   2.393 -0.4143 -0.3867  0.1509
  325DOPC   H2X44755  10.973   3.882   2.391 -0.6337 -2.5573  0.6246
  325DOPC   H2Y44756  11.114   3.788   2.458 -0.1184 -0.7980 -0.5160
  325DOPC   C2344757  10.737   3.938   2.135 -0.8307 -0.0747 -0.0141
  325DOPC   H3R44758  10.711   4.028   2.074 -0.4868 -0.6721 -1.0678
  325DOPC   H3S44759  10.843   3.953   2.165 -0.3284 -3.1160  0.0500
  325DOPC   C2444760  10.652   3.946   2.255 -0.0058 -0.7252  0.3031
  325DOPC   H4R44761  10.648   3.847   2.306  1.7231  0.1832  2.4071
  325DOPC   H4S44762  10.549   3.967   2.220  0.5275 -0.9983 -1.5049
  325DOPC   C2544763  10.693   4.048   2.358  0.1476 -0.2753 -0.0615
  325DOPC   H5R44764  10.703   4.146   2.307 -2.7487  0.2548  0.1925
  325DOPC   H5S44765  10.790   4.014   2.401 -0.2089 -1.0333  0.1659
  325DOPC   C2644766  10.581   4.057   2.458  0.4154  0.1532  0.0240
  325DOPC   H6R44767  10.563   3.955   2.497 -2.6673  0.7982  0.6235
  325DOPC   H6S44768  10.490   4.096   2.407  2.0970  1.2773 -2.3076
  325DOPC   C2744769  10.623   4.152   2.575 -0.2969  0.1591  0.1253
  325DOPC   H7R44770  10.548   4.235   2.568 -0.9288 -0.5263 -1.8170
  325DOPC   H7S44771  10.724   4.195   2.560 -1.1200  2.5782  1.0124
  325DOPC   C2844772  10.610   4.086   2.716 -0.0890  0.0137  0.3839
  325DOPC   H8R44773  10.672   3.996   2.699 -1.2085 -0.5364 -1.0799
  325DOPC   H8S44774  10.505   4.057   2.738 -0.9127  1.2175 -1.6413
  325DOPC   C2944775  10.669   4.171   2.823 -0.1385 -0.6269 -0.9868
  325DOPC   H9R44776  10.775   4.194   2.803  0.0580 -0.0800  0.5267
  325DOPC  C21044777  10.612   4.232   2.932 -0.2130  0.3253  0.3192
  325DOPC  H10R44778  10.683   4.281   3.000  1.0428 -2.7071  1.3695
  325DOPC  C21144779  10.468   4.225   2.976 -0.2496  0.0459 -0.0165
  325DOPC  H11R44780  10.401   4.195   2.892 -2.0792 -2.8962  2.2749
  325DOPC  H11S44781  10.435   4.311   3.037 -0.5912 -0.9836  1.2957
  325DOPC  C21244782  10.450   4.102   3.076  0.4783 -0.4126 -0.5241
  325DOPC  H12R44783  10.501   4.017   3.026  1.4338 -0.5422  0.6182
  325DOPC  H12S44784  10.341   4.081   3.084  0.2655  0.6517 -0.5191
  325DOPC  C21344785  10.506   4.115   3.214 -0.7864 -0.1887  0.3467
  325DOPC  H13R44786  10.503   4.221   3.247  2.4146 -0.2226  1.0493
  325DOPC  H13S44787  10.612   4.084   3.216  0.1144  2.6517  0.3471
  325DOPC  C21444788  10.433   4.035   3.306  0.2653  0.4480 -0.5287
  325DOPC  H14R44789  10.426   3.927   3.281  1.1862 -0.2345  1.8669
  325DOPC  H14S44790  10.324   4.055   3.311 -0.2979 -1.9947 -1.5407
  325DOPC  C21544791  10.490   4.034   3.448 -0.1493 -0.2343  0.1208
  325DOPC  H15R44792  10.494   4.139   3.484 -0.2841  0.4539 -1.7862
  325DOPC  H15S44793  10.597   4.006   3.440 -0.3276 -0.3678 -2.9454
  325DOPC  C21644794  10.417   3.938   3.541 -0.5768 -0.1038 -0.0300
  325DOPC  H16R44795  10.445   3.834   3.514  1.0598  0.1546  0.5507
  325DOPC  H16S44796  10.308   3.961   3.542 -0.6222 -0.2417  1.6985
  325DOPC  C21744797  10.468   3.947   3.687 -0.7563 -0.0376  0.0363
  325DOPC  H17R44798  10.470   4.051   3.724 -1.9029 -0.0823  0.2494
  325DOPC  H17S44799  10.576   3.920   3.678 -1.1438 -1.1259 -1.9815
  325DOPC  C21844800  10.402   3.856   3.787  0.2635 -0.3386  0.6392
  325DOPC  H18R44801  10.293   3.853   3.767  0.3235 -0.1508  0.2675
  325DOPC  H18S44802  10.419   3.892   3.890 -1.8860  0.9192  0.6002
  325DOPC  H18T44803  10.433   3.749   3.795  0.5664 -0.1141  3.0026
  325DOPC   C3344804  11.137   4.002   2.477  0.2413  0.3912  0.6190
  325DOPC   H3X44805  11.112   4.091   2.415  0.0843 -1.6062 -2.4347
  325DOPC   H3Y44806  11.248   3.996   2.485  0.1544 -0.2141  1.4903
  325DOPC   C3444807  11.086   4.012   2.617  0.1404 -0.4034 -0.2138
  325DOPC   H4X44808  11.107   3.921   2.677 -0.3697 -1.1117 -1.0827
  325DOPC   H4Y44809  10.976   4.023   2.619  0.0480 -1.2622  1.5202
  325DOPC   C3544810  11.158   4.136   2.680 -0.0736  0.9109  0.4689
  325DOPC   H5X44811  11.135   4.227   2.621 -2.5885 -0.5776 -1.0371
  325DOPC   H5Y44812  11.269   4.127   2.673 -0.2559 -0.5159 -1.4396
  325DOPC   C3644813  11.117   4.165   2.823 -0.2078  0.2716 -0.8792
  325DOPC   H6X44814  11.007   4.173   2.813 -0.2842 -0.1693 -0.4312
  325DOPC   H6Y44815  11.134   4.077   2.889 -1.9478 -0.2040 -1.0176
  325DOPC   C3744816  11.179   4.298   2.871 -0.0531 -0.2757 -0.3124
  325DOPC   H7X44817  11.289   4.286   2.861  0.1184  1.8845 -1.8942
  325DOPC   H7Y44818  11.155   4.380   2.799  0.0635 -1.2540 -1.5089
  325DOPC   C3844819  11.152   4.333   3.020 -0.4166  0.2425  0.4102
  325DOPC   H8X44820  11.196   4.434   3.031  1.3200 -0.3743 -0.5547
  325DOPC   H8Y44821  11.202   4.262   3.089 -1.6546  1.9786  3.3227
  325DOPC   C3944822  11.002   4.338   3.054 -0.3148 -0.4995 -0.1411
  325DOPC   H9X44823  10.942   4.397   2.983  0.8878 -1.2301 -1.8265
  325DOPC  C31044824  10.944   4.296   3.165  0.2436 -0.0523 -0.7292
  325DOPC  H10X44825  10.836   4.315   3.180  0.4075  0.4501 -0.1256
  325DOPC  C31144826  11.011   4.225   3.277  0.0263 -0.0936  0.0186
  325DOPC  H11X44827  11.062   4.292   3.349 -1.1969 -0.9995  1.8113
  325DOPC  H11Y44828  11.091   4.156   3.246 -0.9142 -0.4366 -1.7488
  325DOPC  C31244829  10.903   4.145   3.358  0.3564 -0.4499  0.0482
  325DOPC  H12X44830  10.861   4.067   3.291  1.1888 -0.8659 -0.0049
  325DOPC  H12Y44831  10.817   4.214   3.376  1.7865  1.9121 -1.6049
  325DOPC  C31344832  10.946   4.076   3.493  0.3311  0.2059 -0.1839
  325DOPC  H13X44833  10.857   4.012   3.511  0.8845 -0.6832 -0.5550
  325DOPC  H13Y44834  11.040   4.019   3.472  0.5706  0.0676  1.2167
  325DOPC  C31444835  10.972   4.174   3.612 -0.4887  0.0483  0.5156
  325DOPC  H14X44836  11.074   4.214   3.601 -0.7327  0.7898  0.8904
  325DOPC  H14Y44837  10.902   4.259   3.598  1.0076  1.0158 -1.4595
  325DOPC  C31544838  10.943   4.108   3.747 -0.1888 -0.1202  0.3832
  325DOPC  H15X44839  11.022   4.032   3.766 -0.6475 -0.6924  0.0259
  325DOPC  H15Y44840  10.842   4.064   3.757 -0.2910 -0.3427 -1.3578
  325DOPC  C31644841  10.956   4.209   3.856 -0.1564  0.3663 -0.4339
  325DOPC  H16X44842  11.053   4.263   3.854  0.5413 -0.8539 -0.2065
  325DOPC  H16Y44843  10.873   4.281   3.839 -1.4333 -0.9169  0.1029
  325DOPC  C31744844  10.938   4.135   3.986 -0.4776 -0.4845 -0.3759
  325DOPC  H17X44845  10.844   4.075   3.982 -1.1164  0.5002 -0.5923
  325DOPC  H17Y44846  11.013   4.054   3.988 -0.4640 -0.4787 -0.5943
  325DOPC  C31844847  10.936   4.223   4.115  0.2763 -0.0351 -0.2671
  325DOPC  H18X44848  10.859   4.303   4.113  0.7944  0.5270  1.1146
  325DOPC  H18Y44849  10.915   4.156   4.201  1.9439 -0.9551 -0.5359
  325DOPC  H18Z44850  11.035   4.271   4.130 -0.0355  0.0782  1.7588
  326DOPC     N44851   7.290   7.428   1.690  0.4397 -0.4112 -0.0812
  326DOPC   C1244852   7.253   7.420   1.836  0.1968  0.0021  0.8901
  326DOPC  H12A44853   7.255   7.319   1.873 -0.2846 -1.5313 -2.8408
  326DOPC  H12B44854   7.150   7.453   1.842 -1.4267 -3.6285 -2.6441
  326DOPC   C1344855   7.302   7.574   1.645  0.3937 -0.3476 -1.3733
  326DOPC  H13A44856   7.212   7.631   1.660  0.2117 -0.9215 -0.1978
  326DOPC  H13B44857   7.377   7.621   1.707 -0.7259  1.8546 -1.5739
  326DOPC  H13C44858   7.331   7.573   1.541 -0.4257  0.0367 -1.6148
  326DOPC   C1444859   7.181   7.362   1.609  0.8382 -0.0733  0.3081
  326DOPC  H14A44860   7.083   7.401   1.633  1.2082  1.5645 -0.7432
  326DOPC  H14B44861   7.197   7.388   1.506  2.6209  0.2801  0.6484
  326DOPC  H14C44862   7.180   7.255   1.628  0.7904 -0.2151 -0.4730
  326DOPC   C1544863   7.431   7.377   1.657  0.8864 -0.1224 -0.2710
  326DOPC  H15A44864   7.436   7.366   1.550  1.3224  0.2209 -0.2902
  326DOPC  H15B44865   7.443   7.277   1.695  1.3314 -0.9002 -2.3182
  326DOPC  H15C44866   7.517   7.429   1.699 -0.6196  2.1608  0.1789
  326DOPC   C1144867   7.331   7.518   1.933 -0.1153  0.1282 -0.7044
  326DOPC  H11A44868   7.331   7.623   1.898  0.3667  0.1470 -0.6462
  326DOPC  H11B44869   7.268   7.513   2.024 -1.0493  0.1970 -1.3284
  326DOPC     P44870   7.502   7.365   2.065 -0.1921 -0.2880 -0.0498
  326DOPC   O1344871   7.638   7.318   2.039 -0.1865 -0.2765  0.4181
  326DOPC   O1444872   7.389   7.266   2.066 -0.2831 -0.5752 -0.0369
  326DOPC   O1244873   7.462   7.473   1.954 -0.5018  0.1535 -0.4617
  326DOPC   O1144874   7.498   7.445   2.198  0.2035  0.2642 -0.2515
  326DOPC    C144875   7.526   7.581   2.216  0.1548  0.2322  0.1953
  326DOPC    HA44876   7.450   7.648   2.173  0.1477  1.0354  1.4164
  326DOPC    HB44877   7.618   7.616   2.163  1.5530 -2.2154  0.8259
  326DOPC    C244878   7.531   7.626   2.365 -0.1734  0.4326 -0.2923
  326DOPC    HS44879   7.551   7.735   2.366 -0.5235  0.4944  0.2149
  326DOPC   O2144880   7.638   7.560   2.447 -0.1581  0.1446 -0.0054
  326DOPC   C2144881   7.767   7.569   2.416  0.1901 -0.1913  0.3106
  326DOPC   O2244882   7.811   7.630   2.321 -0.1648  0.3918 -0.3281
  326DOPC   C2244883   7.855   7.484   2.514  0.2214 -0.3586  0.5794
  326DOPC   H2R44884   7.957   7.471   2.471  0.0968 -0.9470  0.4570
  326DOPC   H2S44885   7.806   7.386   2.532 -1.3252  0.6449  2.0558
  326DOPC    C344886   7.389   7.598   2.430  0.4540  0.2534 -0.1767
  326DOPC    HX44887   7.353   7.509   2.374  0.1089 -0.0960  0.5934
  326DOPC    HY44888   7.318   7.680   2.407 -0.7233 -0.0324  2.1727
  326DOPC   O3144889   7.401   7.583   2.567 -0.0734 -0.1487 -1.0016
  326DOPC   C3144890   7.411   7.459   2.612  0.1563  0.0781 -0.4164
  326DOPC   O3244891   7.400   7.357   2.545 -0.1556 -0.3898  0.2168
  326DOPC   C3244892   7.448   7.461   2.759  0.4722 -0.4210 -0.2654
  326DOPC   H2X44893   7.524   7.539   2.779  0.9677 -0.8354 -0.5322
  326DOPC   H2Y44894   7.355   7.487   2.815  0.0119 -2.7295  0.1791
  326DOPC   C2344895   7.863   7.576   2.634 -0.1569  0.5244 -0.4359
  326DOPC   H3R44896   7.766   7.628   2.652 -1.3887 -1.8638  0.3079
  326DOPC   H3S44897   7.942   7.649   2.607 -1.3560  1.2907 -2.0572
  326DOPC   C2444898   7.907   7.490   2.754  0.5904  0.3279  0.5312
  326DOPC   H4R44899   7.991   7.420   2.732  0.3858 -0.2975  1.6907
  326DOPC   H4S44900   7.829   7.417   2.782 -1.8509  3.4774  2.5986
  326DOPC   C2544901   7.931   7.577   2.876  0.7877 -0.3530  0.1253
  326DOPC   H5R44902   7.846   7.645   2.898  0.2829 -0.8024 -0.4063
  326DOPC   H5S44903   8.010   7.647   2.842  1.1436 -0.7646  0.0902
  326DOPC   C2644904   7.972   7.495   3.001  0.0025  0.3585  0.8263
  326DOPC   H6R44905   8.042   7.415   2.968 -3.3916 -2.5706  0.0924
  326DOPC   H6S44906   7.883   7.437   3.033  0.4216  0.1473  1.6303
  326DOPC   C2744907   8.033   7.577   3.112  0.2650 -0.5815  1.1912
  326DOPC   H7R44908   7.966   7.652   3.158  0.9935  1.8552 -1.4318
  326DOPC   H7S44909   8.114   7.637   3.065 -0.7517  0.9500  1.3227
  326DOPC   C2844910   8.094   7.491   3.221 -0.6226  0.5056 -0.1217
  326DOPC   H8R44911   8.150   7.547   3.299  1.1894  0.2465 -1.1806
  326DOPC   H8S44912   8.161   7.411   3.183  0.5805  1.0545  0.7713
  326DOPC   C2944913   7.987   7.417   3.299 -0.4954 -0.4253 -0.0150
  326DOPC   H9R44914   7.949   7.322   3.257 -1.6123 -0.3727  0.8382
  326DOPC  C21044915   7.936   7.467   3.415  0.8090  0.5372  0.0331
  326DOPC  H10R44916   7.853   7.408   3.458  0.6986 -2.0086 -3.2301
  326DOPC  C21144917   7.972   7.594   3.482  0.1973  0.0490  0.3365
  326DOPC  H11R44918   7.881   7.653   3.502 -1.2178 -2.1770  0.8887
  326DOPC  H11S44919   8.049   7.650   3.425 -1.6955  0.5865 -1.8238
  326DOPC  C21244920   8.041   7.560   3.618 -0.4777  0.3386 -0.2213
  326DOPC  H12R44921   8.118   7.484   3.594 -0.8022 -0.3057  0.6958
  326DOPC  H12S44922   7.981   7.512   3.698 -1.5186 -0.1258 -1.2585
  326DOPC  C21344923   8.102   7.693   3.677  0.6176 -0.6600  0.2207
  326DOPC  H13R44924   8.013   7.740   3.723  0.3679  0.1907 -1.0474
  326DOPC  H13S44925   8.127   7.762   3.593  3.8719 -0.8187  0.9425
  326DOPC  C21444926   8.223   7.673   3.758  0.2296  0.7361  0.7692
  326DOPC  H14R44927   8.300   7.630   3.690 -2.1165 -1.3218 -0.7796
  326DOPC  H14S44928   8.211   7.581   3.821  0.2636 -0.1959 -0.5465
  326DOPC  C21544929   8.265   7.787   3.843 -0.0241  0.6562 -0.1355
  326DOPC  H15R44930   8.188   7.830   3.910  1.8076  2.8417  0.6865
  326DOPC  H15S44931   8.289   7.876   3.780 -0.6488  1.6050  0.9245
  326DOPC  C21644932   8.392   7.750   3.917 -0.1305  0.1561  0.3714
  326DOPC  H16R44933   8.440   7.844   3.950  2.1750 -1.1149  0.8941
  326DOPC  H16S44934   8.468   7.688   3.864  1.7898 -0.1039  3.1744
  326DOPC  C21744935   8.353   7.674   4.042  0.1035  0.4190  0.2051
  326DOPC  H17R44936   8.326   7.570   4.014 -0.4227  1.3765 -3.4537
  326DOPC  H17S44937   8.271   7.728   4.094 -2.6145 -2.0194 -1.2228
  326DOPC  C21844938   8.474   7.657   4.136 -0.5492 -0.4568  0.0783
  326DOPC  H18R44939   8.504   7.749   4.190 -1.3889 -0.3664  0.4003
  326DOPC  H18S44940   8.558   7.606   4.085 -1.2726  0.0067 -1.6734
  326DOPC  H18T44941   8.436   7.578   4.204 -2.5778 -0.2349 -0.7363
  326DOPC   C3344942   7.502   7.320   2.808 -0.1508  0.8393 -0.5927
  326DOPC   H3X44943   7.580   7.288   2.735  0.1369  0.8075 -0.2769
  326DOPC   H3Y44944   7.416   7.251   2.816 -0.0039  0.8419  4.7820
  326DOPC   C3444945   7.564   7.318   2.946  0.1139  0.4824 -0.3656
  326DOPC   H4X44946   7.658   7.377   2.955  0.9881 -1.0953  1.5366
  326DOPC   H4Y44947   7.610   7.218   2.957  1.8115  1.2602 -0.0975
  326DOPC   C3544948   7.475   7.336   3.071 -0.1498 -0.3156  0.5355
  326DOPC   H5X44949   7.389   7.265   3.063 -1.1185  1.0600 -4.5949
  326DOPC   H5Y44950   7.429   7.437   3.069  2.1688  0.8326 -2.4180
  326DOPC   C3644951   7.553   7.313   3.197 -0.0770  0.3170 -0.0043
  326DOPC   H6X44952   7.630   7.393   3.194  0.9685 -0.5563  1.5041
  326DOPC   H6Y44953   7.491   7.334   3.287 -0.6618 -2.2642  0.3018
  326DOPC   C3744954   7.637   7.180   3.228  0.7542 -0.0783 -0.0789
  326DOPC   H7X44955   7.585   7.101   3.170  0.4859 -0.7199  0.9990
  326DOPC   H7Y44956   7.734   7.196   3.177  0.7598 -2.0308 -0.7605
  326DOPC   C3844957   7.663   7.145   3.374  0.5995  0.2093  0.7040
  326DOPC   H8X44958   7.573   7.171   3.435 -0.7863  0.7822 -1.4804
  326DOPC   H8Y44959   7.748   7.200   3.419  0.5484  0.4476  0.5105
  326DOPC   C3944960   7.682   6.996   3.386 -0.3068 -0.6421  1.0542
  326DOPC   H9X44961   7.596   6.942   3.426  0.4475 -2.4135  0.3635
  326DOPC  C31044962   7.796   6.933   3.383 -0.7358 -0.2363  0.3286
  326DOPC  H10X44963   7.804   6.827   3.411 -0.7849 -0.6148 -1.0246
  326DOPC  C31144964   7.935   6.992   3.338 -0.7371  0.3755 -1.2484
  326DOPC  H11X44965   7.930   7.089   3.284 -2.2986  2.5868  2.4590
  326DOPC  H11Y44966   7.981   6.916   3.272 -0.9899 -0.2453 -0.7233
  326DOPC  C31244967   8.035   7.026   3.450 -0.0714  0.0598  0.2907
  326DOPC  H12X44968   8.086   6.938   3.495  1.2882 -0.3521 -1.9106
  326DOPC  H12Y44969   7.997   7.087   3.535 -0.6673  0.0576  0.0346
  326DOPC  C31344970   8.168   7.089   3.397  0.7303 -0.1796 -0.0211
  326DOPC  H13X44971   8.218   7.017   3.328  1.5756 -0.7410  1.1437
  326DOPC  H13Y44972   8.132   7.162   3.322  1.3244 -0.0360 -0.1752
  326DOPC  C31444973   8.262   7.134   3.504  0.0447 -0.5794  0.0234
  326DOPC  H14X44974   8.206   7.175   3.591  0.4421  0.4873 -0.2079
  326DOPC  H14Y44975   8.308   7.045   3.551  3.9656  1.6478  0.8419
  326DOPC  C31544976   8.371   7.226   3.434 -0.0685 -0.0290  0.0277
  326DOPC  H15X44977   8.319   7.297   3.367  0.4268 -0.1593 -0.5061
  326DOPC  H15Y44978   8.436   7.160   3.372  0.3468 -0.1943  0.6337
  326DOPC  C31644979   8.454   7.307   3.532  0.3042 -0.6236 -0.1126
  326DOPC  H16X44980   8.400   7.376   3.600 -1.8017 -1.2047 -1.1033
  326DOPC  H16Y44981   8.514   7.250   3.606 -0.3223  0.3680  1.2025
  326DOPC  C31744982   8.547   7.409   3.458 -0.8103  0.5424 -0.5108
  326DOPC  H17X44983   8.581   7.352   3.369  0.5740 -0.6012  0.6804
  326DOPC  H17Y44984   8.485   7.492   3.418  0.8447  1.2382 -1.7544
  326DOPC  C31844985   8.676   7.451   3.536 -0.1207  0.1151 -0.7073
  326DOPC  H18X44986   8.745   7.368   3.561  0.1158  0.6661  0.5276
  326DOPC  H18Y44987   8.734   7.531   3.484 -0.1899  1.1990  0.8090
  326DOPC  H18Z44988   8.636   7.497   3.629 -3.1914 -2.3092 -0.6875
  327DOPC     N44989  10.630   7.348   2.004  0.2700  0.7332  0.0379
  327DOPC   C1244990  10.561   7.213   2.031 -0.0274 -0.3926  0.4391
  327DOPC  H12A44991  10.560   7.193   2.137  0.4995  2.2797  1.0137
  327DOPC  H12B44992  10.613   7.131   1.983 -2.1249 -1.1242 -0.6965
  327DOPC   C1344993  10.622   7.382   1.863 -0.7096 -0.3144 -0.0370
  327DOPC  H13A44994  10.678   7.471   1.843  0.4410 -0.7155  1.2207
  327DOPC  H13B44995  10.658   7.298   1.806 -0.0367 -0.3952  0.4985
  327DOPC  H13C44996  10.522   7.399   1.826 -0.8766  2.5037  1.4372
  327DOPC   C1444997  10.773   7.339   2.037 -0.2501  0.1845 -0.4577
  327DOPC  H14A44998  10.824   7.435   2.034 -1.1445  0.6450 -1.5766
  327DOPC  H14B44999  10.797   7.303   2.136 -0.0823 -1.0619 -0.9363
  327DOPC  H14C45000  10.823   7.268   1.973  0.9534  1.8522 -1.4921
  327DOPC   C1545001  10.566   7.453   2.079 -0.4858  0.2740 -0.0320
  327DOPC  H15A45002  10.603   7.548   2.044 -0.3513  0.4280  0.5230
  327DOPC  H15B45003  10.591   7.449   2.184  0.2928 -1.4774 -0.2362
  327DOPC  H15C45004  10.459   7.439   2.085 -0.7399  2.5130  1.6766
  327DOPC   C1145005  10.407   7.196   1.997 -1.2371 -0.3824 -0.6857
  327DOPC  H11A45006  10.372   7.098   2.035 -0.8351  0.4933  2.1841
  327DOPC  H11B45007  10.360   7.279   2.053 -0.0889  0.7785 -1.3870
  327DOPC     P45008  10.225   7.244   1.816 -0.4405  0.1782 -0.2004
  327DOPC   O1345009  10.181   7.139   1.723  0.1209 -0.4745  0.8484
  327DOPC   O1445010  10.214   7.381   1.771  0.3605 -0.2190 -0.5903
  327DOPC   O1245011  10.375   7.223   1.859 -0.4406  0.1053 -0.1882
  327DOPC   O1145012  10.150   7.232   1.947  0.6410 -0.4292  0.6208
  327DOPC    C145013  10.007   7.266   1.952  0.0412  0.6850 -0.1581
  327DOPC    HA45014   9.954   7.179   1.995  0.1402  0.7944  0.1846
  327DOPC    HB45015   9.969   7.297   1.852 -1.6390  0.4302  0.3777
  327DOPC    C245016   9.970   7.366   2.060  0.1131 -0.6063 -0.0323
  327DOPC    HS45017   9.997   7.462   2.011  0.4228 -0.8105 -0.2636
  327DOPC   O2145018  10.028   7.333   2.190  0.2371 -0.8715 -0.0991
  327DOPC   C2145019  10.138   7.407   2.210 -0.0039 -0.5117 -0.8439
  327DOPC   O2245020  10.188   7.485   2.130 -0.1438  0.1060  0.4162
  327DOPC   C2245021  10.187   7.367   2.343 -0.3724  0.9534 -0.5893
  327DOPC   H2R45022  10.222   7.262   2.344 -1.7953  0.2908  4.1728
  327DOPC   H2S45023  10.102   7.367   2.414  0.0444 -0.5689 -0.0428
  327DOPC    C345024   9.819   7.366   2.072 -0.5631  0.4540 -0.3886
  327DOPC    HX45025   9.787   7.261   2.089  0.6002  0.1989  0.3684
  327DOPC    HY45026   9.770   7.401   1.979 -1.4090  2.1596  0.6573
  327DOPC   O3145027   9.771   7.452   2.173 -0.1474  0.6995 -0.3697
  327DOPC   C3145028   9.756   7.411   2.299 -0.6551  1.0540 -0.8761
  327DOPC   O3245029   9.785   7.298   2.337 -0.6636  0.3042 -0.9301
  327DOPC   C3245030   9.674   7.503   2.383 -0.0890 -0.3397  1.0670
  327DOPC   H2X45031   9.694   7.609   2.357 -3.4171 -0.1255 -1.2667
  327DOPC   H2Y45032   9.564   7.499   2.371  0.0269 -1.6930  0.2573
  327DOPC   C2345033  10.280   7.467   2.404  0.2148 -0.6336 -0.2117
  327DOPC   H3R45034  10.225   7.558   2.435 -1.5621 -1.5727 -0.4708
  327DOPC   H3S45035  10.364   7.490   2.334  0.9394 -2.0323  0.1634
  327DOPC   C2445036  10.340   7.418   2.531  0.3396  0.0976  0.1890
  327DOPC   H4R45037  10.384   7.317   2.518 -0.6054 -0.6206  2.1483
  327DOPC   H4S45038  10.264   7.403   2.610 -0.1290 -1.3720 -0.5181
  327DOPC   C2545039  10.442   7.514   2.588  0.0268  0.4058 -0.2941
  327DOPC   H5R45040  10.388   7.597   2.639 -0.8482  0.7489 -1.7198
  327DOPC   H5S45041  10.507   7.563   2.512 -0.2496  1.2073 -0.0241
  327DOPC   C2645042  10.538   7.443   2.683  0.2781 -0.4350  0.9609
  327DOPC   H6R45043  10.623   7.505   2.716 -0.2404 -0.3489  2.1754
  327DOPC   H6S45044  10.596   7.357   2.643  1.2615  1.4332 -1.9620
  327DOPC   C2745045  10.483   7.406   2.822 -0.5564  0.2221  0.5016
  327DOPC   H7R45046  10.385   7.354   2.816 -1.1871  1.5327 -1.4675
  327DOPC   H7S45047  10.465   7.501   2.878  3.0128  2.9495 -2.3847
  327DOPC   C2845048  10.572   7.314   2.899 -0.2197  0.3401 -0.3374
  327DOPC   H8R45049  10.615   7.244   2.824 -1.1606 -2.1299  1.3098
  327DOPC   H8S45050  10.516   7.241   2.961 -0.6663  1.3913  0.5165
  327DOPC   C2945051  10.672   7.380   2.986 -0.1836  0.3680  0.6505
  327DOPC   H9R45052  10.629   7.433   3.072 -1.1409 -0.4451  0.6934
  327DOPC  C21045053  10.810   7.366   2.986  0.5019  0.7099  0.8583
  327DOPC  H10R45054  10.874   7.424   3.053  2.6003 -0.3610 -0.0915
  327DOPC  C21145055  10.895   7.281   2.893 -0.3870  0.3561 -0.5289
  327DOPC  H11R45056  10.832   7.227   2.819  0.4076 -0.7805 -0.3973
  327DOPC  H11S45057  10.940   7.201   2.955 -1.1831  0.8284  0.7088
  327DOPC  C21245058  11.004   7.363   2.826  0.7577  0.3777 -0.5224
  327DOPC  H12R45059  11.082   7.285   2.810  0.7852  0.0865  0.9563
  327DOPC  H12S45060  11.046   7.429   2.906  0.9702  0.3556 -0.6134
  327DOPC  C21345061  10.957   7.450   2.713  0.1206  0.7948  0.0331
  327DOPC  H13R45062  10.872   7.509   2.754 -0.3341 -1.3344  2.3567
  327DOPC  H13S45063  10.923   7.393   2.624 -1.7966  0.3513  1.0025
  327DOPC  C21445064  11.057   7.557   2.685  0.2651 -0.2580  0.5742
  327DOPC  H14R45065  11.034   7.616   2.594 -0.9715 -1.1702  0.2779
  327DOPC  H14S45066  11.155   7.506   2.676  1.3204  1.3156  2.3689
  327DOPC  C21545067  11.065   7.662   2.800 -0.7493  0.2074 -0.2500
  327DOPC  H15R45068  11.116   7.619   2.888 -0.1979 -0.9017 -1.0939
  327DOPC  H15S45069  10.965   7.676   2.846 -1.7946 -3.2376 -1.2100
  327DOPC  C21645070  11.119   7.792   2.746 -0.8375 -0.1723 -0.5773
  327DOPC  H16R45071  11.026   7.842   2.712 -1.8126 -0.3710  1.6190
  327DOPC  H16S45072  11.199   7.781   2.670  1.0444  0.9819  1.1207
  327DOPC  C21745073  11.178   7.880   2.864 -0.0640  0.2798  0.5037
  327DOPC  H17R45074  11.202   7.984   2.833  1.4753 -1.0980 -3.7481
  327DOPC  H17S45075  11.276   7.841   2.899  0.6415  1.6745  0.1569
  327DOPC  C21845076  11.080   7.891   2.982 -0.3492  0.2466  0.7495
  327DOPC  H18R45077  11.056   7.793   3.029  0.8352 -0.7802 -0.6860
  327DOPC  H18S45078  10.988   7.945   2.950  0.7072  1.1463 -0.8843
  327DOPC  H18T45079  11.130   7.962   3.051  1.0790  2.4667 -2.3551
  327DOPC   C3345080   9.709   7.489   2.533 -0.3814 -1.0949 -0.1411
  327DOPC   H3X45081   9.820   7.490   2.538 -0.3683  0.0011 -0.4803
  327DOPC   H3Y45082   9.661   7.399   2.577 -0.1728 -1.6630 -1.0511
  327DOPC   C3445083   9.640   7.592   2.625 -0.1953  0.0877 -0.1635
  327DOPC   H4X45084   9.530   7.582   2.613  0.0836 -1.7446 -1.7668
  327DOPC   H4Y45085   9.665   7.698   2.605 -1.0130  0.3251  0.0595
  327DOPC   C3545086   9.669   7.566   2.778 -1.0256  0.7661  0.2956
  327DOPC   H5X45087   9.779   7.551   2.791 -1.0498 -0.7445 -1.0428
  327DOPC   H5Y45088   9.612   7.472   2.788  0.7876 -0.3435  0.6549
  327DOPC   C3645089   9.619   7.668   2.874 -0.0137 -0.6635  0.1849
  327DOPC   H6X45090   9.680   7.761   2.875 -0.5337 -0.3109  1.8331
  327DOPC   H6Y45091   9.517   7.693   2.838  1.3600  0.8751 -3.1508
  327DOPC   C3745092   9.620   7.622   3.024  0.1967 -0.4326  0.0340
  327DOPC   H7X45093   9.584   7.706   3.087 -1.2958 -1.6219  0.8229
  327DOPC   H7Y45094   9.541   7.546   3.037 -0.7364  0.5612  0.3787
  327DOPC   C3845095   9.749   7.568   3.076  0.4477 -0.0378 -1.0976
  327DOPC   H8X45096   9.780   7.481   3.015  0.0377 -2.3146  1.7105
  327DOPC   H8Y45097   9.727   7.508   3.167 -1.3020  0.2545 -1.2868
  327DOPC   C3945098   9.853   7.676   3.097 -0.0790 -0.0178 -0.0978
  327DOPC   H9X45099   9.913   7.706   3.010 -1.3527 -0.1516 -1.0383
  327DOPC  C31045100   9.889   7.731   3.212 -0.3811  0.7451 -0.1687
  327DOPC  H10X45101   9.976   7.798   3.217 -0.8494  1.3360  0.1975
  327DOPC  C31145102   9.841   7.685   3.344 -0.5601  0.0625  0.2853
  327DOPC  H11X45103   9.735   7.651   3.333  0.1803 -1.5798 -2.7167
  327DOPC  H11Y45104   9.850   7.765   3.421  0.3694  0.7001 -0.4731
  327DOPC  C31245105   9.936   7.577   3.405  0.1549  0.0628  0.5332
  327DOPC  H12X45106  10.040   7.603   3.377  0.0861 -0.2826 -0.0661
  327DOPC  H12Y45107   9.910   7.478   3.362  3.0273  0.1442 -1.7253
  327DOPC  C31345108   9.914   7.560   3.559 -0.5107 -0.2730 -0.0490
  327DOPC  H13X45109   9.938   7.659   3.604  1.4249  0.5973 -2.7188
  327DOPC  H13Y45110   9.807   7.540   3.581 -1.2175  1.2864 -1.8200
  327DOPC  C31445111   9.990   7.441   3.608 -0.6376  0.4152  0.1574
  327DOPC  H14X45112   9.963   7.359   3.537  2.6670 -2.5040  1.9255
  327DOPC  H14Y45113  10.099   7.460   3.595 -1.1307  2.4637 -1.5054
  327DOPC  C31545114   9.962   7.391   3.748 -0.4251 -0.3965 -0.0701
  327DOPC  H15X45115  10.028   7.304   3.768 -1.8202 -1.6091 -0.5573
  327DOPC  H15Y45116   9.856   7.360   3.755 -0.8830  1.0098 -0.4865
  327DOPC  C31645117   9.978   7.491   3.857 -0.4189  0.2032  0.4534
  327DOPC  H16X45118  10.077   7.539   3.837 -0.2123 -1.0338 -1.9813
  327DOPC  H16Y45119   9.902   7.570   3.843 -0.0110  0.5068 -0.0953
  327DOPC  C31745120   9.984   7.433   4.001  0.3198  0.3154 -0.5181
  327DOPC  H17X45121  10.047   7.341   4.009 -2.1042 -1.3344  0.6068
  327DOPC  H17Y45122  10.032   7.509   4.066 -0.2203  1.9381 -1.9540
  327DOPC  C31845123   9.842   7.399   4.055 -0.1640 -0.3379 -0.0930
  327DOPC  H18X45124   9.773   7.485   4.059  0.0898 -0.0789 -1.1110
  327DOPC  H18Y45125   9.788   7.326   3.991  0.8721  0.6656 -2.2163
  327DOPC  H18Z45126   9.853   7.366   4.161 -0.0754 -2.1167 -0.6305
  328DOPC     N45127  11.332   6.975   1.605  0.0783  0.4513 -0.3009
  328DOPC   C1245128  11.487   6.984   1.608 -0.2264  0.3315 -0.3939
  328DOPC  H12A45129  11.514   7.086   1.634 -0.7775  1.0439 -2.4310
  328DOPC  H12B45130  11.524   6.965   1.509 -0.2692  0.1054 -0.3656
  328DOPC   C1345131  11.295   6.832   1.586 -0.4808 -0.5084  0.0008
  328DOPC  H13A45132  11.347   6.795   1.499  0.1954 -0.5541  0.4153
  328DOPC  H13B45133  11.316   6.762   1.666  0.5006  1.9238  1.9964
  328DOPC  H13C45134  11.190   6.826   1.565 -1.0714  2.6064  1.4775
  328DOPC   C1445135  11.288   7.052   1.483  0.0890 -0.6622 -0.1837
  328DOPC  H14A45136  11.298   7.160   1.492 -0.0676 -0.5691 -1.0554
  328DOPC  H14B45137  11.346   7.018   1.399  0.2365  0.0065 -0.3608
  328DOPC  H14C45138  11.182   7.040   1.467 -0.2964  1.0185  0.7590
  328DOPC   C1545139  11.267   7.034   1.731 -0.0316 -0.0519 -0.5368
  328DOPC  H15A45140  11.304   6.973   1.812  1.8921 -0.3678 -1.6145
  328DOPC  H15B45141  11.160   7.036   1.717 -0.1901 -3.0497 -0.3556
  328DOPC  H15C45142  11.306   7.132   1.754 -0.8427  0.1583 -0.0217
  328DOPC   C1145143  11.556   6.882   1.707  0.0004  0.2833  0.2439
  328DOPC  H11A45144  11.512   6.780   1.705 -0.3046  0.3773  1.6266
  328DOPC  H11B45145  11.662   6.875   1.673 -0.2808  0.3091 -0.6838
  328DOPC     P45146  11.629   7.047   1.904 -0.3016 -0.0871 -0.1732
  328DOPC   O1345147  11.602   7.172   1.821 -0.3069 -0.0118 -0.8031
  328DOPC   O1445148  11.769   6.999   1.918  0.2225  0.2026  0.0605
  328DOPC   O1245149  11.547   6.928   1.840 -0.1543  1.1135 -0.2905
  328DOPC   O1145150  11.574   7.065   2.047  0.1265 -0.0013 -0.4128
  328DOPC    C145151  11.581   6.964   2.143 -0.5120 -0.6285 -0.2367
  328DOPC    HA45152  11.644   6.880   2.107  0.7112  0.0976  0.1869
  328DOPC    HB45153  11.476   6.929   2.158 -0.9683  1.4341  1.7825
  328DOPC    C245154  11.638   7.007   2.277 -1.2560  0.6610  0.3729
  328DOPC    HS45155  11.663   6.920   2.340 -1.3861 -0.1845 -0.7045
  328DOPC   O2145156  11.553   7.096   2.347  0.4451 -0.2756  0.0695
  328DOPC   C2145157  11.441   7.028   2.386 -0.6650  0.0615  0.5171
  328DOPC   O2245158  11.415   6.910   2.377 -0.2471  0.2779  0.1520
  328DOPC   C2245159  11.344   7.127   2.449  0.4583 -0.7937  0.0049
  328DOPC   H2R45160  11.269   7.152   2.371  2.2435  1.7891 -1.0333
  328DOPC   H2S45161  11.396   7.224   2.467 -0.0580 -0.5040 -0.0305
  328DOPC    C345162  11.778   7.086   2.249 -0.1878  0.1547 -0.0440
  328DOPC    HX45163  11.768   7.171   2.177  1.2059  0.0503 -0.3723
  328DOPC    HY45164  11.842   7.014   2.195 -0.0925  1.8435 -2.3218
  328DOPC   O3145165  11.843   7.116   2.376  0.6781 -0.1169  0.7935
  328DOPC   C3145166  11.817   7.239   2.409 -0.6436 -0.2899  0.7864
  328DOPC   O3245167  11.775   7.328   2.340  0.0865 -0.2392 -0.0310
  328DOPC   C3245168  11.873   7.267   2.545 -0.0572  0.0489 -0.1406
  328DOPC   H2X45169  11.797   7.257   2.626 -1.1988  1.4868 -0.9655
  328DOPC   H2Y45170  11.948   7.191   2.574  0.7765  0.7371 -0.4441
  328DOPC   C2345171  11.273   7.060   2.571 -0.0675  0.1845 -0.5806
  328DOPC   H3R45172  11.240   6.956   2.551  0.9380 -0.5042  1.1022
  328DOPC   H3S45173  11.176   7.103   2.606 -0.7101 -0.7396 -1.1930
  328DOPC   C2445174  11.365   7.057   2.693 -0.2786 -0.1580  0.0371
  328DOPC   H4R45175  11.417   7.154   2.704  0.6971 -0.8970  3.0935
  328DOPC   H4S45176  11.445   6.980   2.685  0.1671  0.2902  0.1472
  328DOPC   C2545177  11.284   7.035   2.830  0.0195 -0.3681  0.2565
  328DOPC   H5R45178  11.224   7.128   2.835  0.8387  0.2981 -1.3197
  328DOPC   H5S45179  11.359   7.036   2.912 -0.4883  3.2254  0.8700
  328DOPC   C2645180  11.193   6.915   2.846  0.4770  0.5863 -0.4205
  328DOPC   H6R45181  11.255   6.823   2.835  1.7411  1.5476 -1.6140
  328DOPC   H6S45182  11.108   6.918   2.774 -0.4735  1.5530  0.6987
  328DOPC   C2745183  11.122   6.916   2.977  0.1186  0.1017  0.6758
  328DOPC   H7R45184  11.061   7.009   2.974  0.3283  0.2436  0.7760
  328DOPC   H7S45185  11.197   6.942   3.055  2.1548 -0.2382 -1.1007
  328DOPC   C2845186  11.043   6.782   3.002  0.6111 -0.1018  0.1812
  328DOPC   H8R45187  11.099   6.693   2.967 -0.1037 -0.7869  0.7413
  328DOPC   H8S45188  10.954   6.781   2.936  0.2858  2.9385  0.4169
  328DOPC   C2945189  11.005   6.778   3.150  1.4209  0.1644  0.0118
  328DOPC   H9R45190  11.091   6.755   3.215  0.5677 -0.1751  1.0679
  328DOPC  C21045191  10.875   6.786   3.195 -0.9189 -0.2859 -0.2675
  328DOPC  H10R45192  10.853   6.774   3.302 -0.9830 -0.5265 -0.3057
  328DOPC  C21145193  10.751   6.805   3.110  0.2185  0.4178 -0.5837
  328DOPC  H11R45194  10.777   6.787   3.003  1.3999  0.1427 -0.2611
  328DOPC  H11S45195  10.708   6.907   3.121 -3.1402 -0.6425 -2.2661
  328DOPC  C21245196  10.652   6.692   3.146  0.0492  0.1584  0.5121
  328DOPC  H12R45197  10.590   6.723   3.232 -1.5562  1.3709 -1.0003
  328DOPC  H12S45198  10.709   6.599   3.169  2.7836  0.8527 -2.6298
  328DOPC  C21345199  10.560   6.666   3.027  0.5553  0.7378  0.4403
  328DOPC  H13R45200  10.616   6.636   2.936 -1.6255  0.6122 -0.9470
  328DOPC  H13S45201  10.516   6.764   2.999 -1.4691 -0.0658  0.6091
  328DOPC  C21445202  10.459   6.556   3.071 -0.3399 -0.4015  0.2688
  328DOPC  H14R45203  10.416   6.582   3.170  2.2715  1.7190  0.9590
  328DOPC  H14S45204  10.517   6.463   3.090  1.3770  0.6258  0.2265
  328DOPC  C21545205  10.351   6.549   2.966  0.4047  0.4532 -0.3864
  328DOPC  H15R45206  10.395   6.563   2.865  1.5051 -1.6324 -0.2325
  328DOPC  H15S45207  10.281   6.635   2.975 -1.2055 -0.7486 -1.0644
  328DOPC  C21645208  10.263   6.426   2.972 -0.4048  0.3133  1.0809
  328DOPC  H16R45209  10.200   6.424   3.064 -2.4232  0.3500 -0.2523
  328DOPC  H16S45210  10.323   6.333   2.961 -0.8789  0.2470 -1.7050
  328DOPC  C21745211  10.162   6.418   2.864  0.0901 -0.2649 -0.1565
  328DOPC  H17R45212  10.116   6.518   2.851  2.8593  0.9575 -1.1514
  328DOPC  H17S45213  10.082   6.340   2.868 -0.8351  0.5618 -1.5818
  328DOPC  C21845214  10.224   6.396   2.722  1.1087 -0.0564 -0.3768
  328DOPC  H18R45215  10.281   6.301   2.725  0.4198 -0.4936 -0.9310
  328DOPC  H18S45216  10.291   6.478   2.690  0.3044  1.2089  1.0370
  328DOPC  H18T45217  10.146   6.379   2.645  2.1886 -1.2569 -1.2655
  328DOPC   C3345218  11.928   7.411   2.562  0.2852  0.6836  0.0476
  328DOPC   H3X45219  11.847   7.478   2.595  1.7917  2.1972  0.8093
  328DOPC   H3Y45220  11.975   7.450   2.468  1.6449  0.0344  0.4237
  328DOPC   C3445221  12.041   7.415   2.671  0.1934  0.0426 -1.1621
  328DOPC   H4X45222  12.063   7.522   2.692  1.2211 -0.5242  0.9802
  328DOPC   H4Y45223  12.134   7.358   2.651  1.6918  1.2847  1.7197
  328DOPC   C3545224  11.986   7.369   2.810  0.0732 -0.2659  0.1897
  328DOPC   H5X45225  11.994   7.258   2.804 -1.1907 -0.3278 -1.0142
  328DOPC   H5Y45226  11.890   7.417   2.840  0.2082 -0.0295  0.2417
  328DOPC   C3645227  12.079   7.414   2.929  0.4560  0.2378 -1.0914
  328DOPC   H6X45228  12.099   7.522   2.912 -0.9872  0.9900  1.4068
  328DOPC   H6Y45229  12.021   7.395   3.022  1.1732  0.0961 -0.6578
  328DOPC   C3745230  12.205   7.325   2.940  0.4792  0.0536 -0.6034
  328DOPC   H7X45231  12.164   7.224   2.961  1.9230 -0.3263  0.6076
  328DOPC   H7Y45232  12.264   7.308   2.847 -1.1444 -0.1703 -1.6385
  328DOPC   C3845233  12.293   7.346   3.059 -0.5129 -0.7716 -0.2393
  328DOPC   H8X45234  12.350   7.260   3.098 -0.1980 -0.6646 -0.4627
  328DOPC   H8Y45235  12.229   7.367   3.147 -1.7664 -0.6732 -1.1328
  328DOPC   C3945236  12.390   7.460   3.035 -0.5957 -0.0938  0.3610
  328DOPC   H9X45237  12.442   7.457   2.938 -0.9760  0.6615  0.1218
  328DOPC  C31045238  12.414   7.566   3.115 -0.3904 -0.8440  0.0693
  328DOPC  H10X45239  12.483   7.639   3.071 -1.7798  0.1620 -0.5262
  328DOPC  C31145240  12.352   7.613   3.246 -0.1778 -0.1538  0.2089
  328DOPC  H11X45241  12.426   7.608   3.329 -0.1994  0.8150  0.2886
  328DOPC  H11Y45242  12.274   7.536   3.265  0.3801 -0.9391 -0.6028
  328DOPC  C31245243  12.281   7.749   3.235 -0.7487 -0.4817 -0.8657
  328DOPC  H12X45244  12.185   7.753   3.178 -1.1386  1.0117 -0.1558
  328DOPC  H12Y45245  12.340   7.835   3.195 -3.2698  2.3325  1.0060
  328DOPC  C31345246  12.246   7.804   3.378  0.9077  0.2557 -0.8411
  328DOPC  H13X45247  12.339   7.803   3.439  0.3624 -0.7219  0.0028
  328DOPC  H13Y45248  12.210   7.909   3.381 -1.1835 -0.3564 -2.2417
  328DOPC  C31445249  12.121   7.732   3.442 -0.3267  0.6889 -0.0984
  328DOPC  H14X45250  12.044   7.708   3.366  0.1106 -0.5443 -0.1730
  328DOPC  H14Y45251  12.143   7.637   3.496  0.6541  1.8967  1.7457
  328DOPC  C31545252  12.059   7.822   3.551  1.0893  0.2929 -0.0836
  328DOPC  H15X45253  11.975   7.761   3.591 -0.5824  2.1113 -0.7036
  328DOPC  H15Y45254  12.009   7.903   3.494 -1.6578 -1.1482  0.1124
  328DOPC  C31645255  12.150   7.876   3.658 -0.6528  0.0624  0.1588
  328DOPC  H16X45256  12.229   7.804   3.689 -1.2750  0.0118  1.7072
  328DOPC  H16Y45257  12.208   7.963   3.619  0.7897 -1.1640 -0.5050
  328DOPC  C31745258  12.087   7.904   3.794 -0.2151  0.3380  0.5889
  328DOPC  H17X45259  11.998   7.971   3.794 -0.6988 -0.2756  1.5560
  328DOPC  H17Y45260  12.042   7.811   3.834  1.8145 -0.6027  0.8003
  328DOPC  C31845261  12.187   7.959   3.895  0.6095 -0.2755  0.3007
  328DOPC  H18X45262  12.237   8.054   3.866  0.5677  0.3430  2.1575
  328DOPC  H18Y45263  12.138   7.975   3.993 -0.1255  1.2554 -0.2654
  328DOPC  H18Z45264  12.269   7.884   3.898  0.1238 -0.7718  2.3234
  329DOPC     N45265   3.603  10.191   1.753  0.3402  0.2328 -0.4287
  329DOPC   C1245266   3.592  10.137   1.903 -0.4270 -0.4396  0.3299
  329DOPC  H12A45267   3.566  10.228   1.956  1.8927  2.4082 -2.9462
  329DOPC  H12B45268   3.690  10.105   1.935  0.0786  0.0255 -0.7037
  329DOPC   C1345269   3.470  10.233   1.704 -0.2121  0.2259 -0.6132
  329DOPC  H13A45270   3.399  10.153   1.721  0.3501 -0.3366 -0.8482
  329DOPC  H13B45271   3.428  10.307   1.769  0.6141  0.6515 -0.5502
  329DOPC  H13C45272   3.476  10.259   1.600 -1.6189  1.0107 -0.5128
  329DOPC   C1445273   3.661  10.084   1.672  1.0170 -0.1662 -0.1355
  329DOPC  H14A45274   3.691  10.117   1.574  0.6551  1.6336  0.3182
  329DOPC  H14B45275   3.748  10.050   1.727  0.0199 -2.0813  0.3395
  329DOPC  H14C45276   3.589  10.003   1.674 -0.0109  0.7113 -0.9875
  329DOPC   C1545277   3.699  10.300   1.761  0.0819 -0.5172  0.0629
  329DOPC  H15A45278   3.730  10.333   1.663 -1.2209 -0.6539 -0.4151
  329DOPC  H15B45279   3.788  10.266   1.810 -0.3281 -2.1588 -0.2746
  329DOPC  H15C45280   3.663  10.385   1.819  0.3284  0.0403 -0.5874
  329DOPC   C1145281   3.499  10.023   1.945  0.3726 -0.0557 -0.0085
  329DOPC  H11A45282   3.514  10.006   2.054  0.5971 -0.0762 -0.0424
  329DOPC  H11B45283   3.391  10.047   1.934  0.3374 -0.3218 -0.2682
  329DOPC     P45284   3.649   9.814   1.909 -0.0238  0.4148 -0.1313
  329DOPC   O1345285   3.759   9.909   1.930 -0.3655  0.9719 -0.6658
  329DOPC   O1445286   3.666   9.727   1.792  0.3201  0.3022  0.4269
  329DOPC   O1245287   3.519   9.902   1.875 -0.5175 -0.0322 -0.0950
  329DOPC   O1145288   3.605   9.730   2.043  0.3278  0.1584  0.1224
  329DOPC    C145289   3.472   9.669   2.051  0.4220 -0.0543  0.8804
  329DOPC    HA45290   3.488   9.564   2.083 -2.1629 -0.6227  0.5411
  329DOPC    HB45291   3.413   9.677   1.957  1.2057 -0.0820  0.3700
  329DOPC    C245292   3.385   9.727   2.158  0.1763 -0.5645 -0.6985
  329DOPC    HS45293   3.368   9.832   2.128 -1.6364 -0.6739 -0.1479
  329DOPC   O2145294   3.456   9.703   2.282 -0.3098  0.1279  0.1037
  329DOPC   C2145295   3.433   9.800   2.365  0.8859 -0.1116  0.1127
  329DOPC   O2245296   3.357   9.896   2.345  0.1405 -0.2242 -0.8350
  329DOPC   C2245297   3.501   9.776   2.493  1.2036 -0.5698  0.9216
  329DOPC   H2R45298   3.535   9.671   2.502 -0.0430 -1.1158 -0.3461
  329DOPC   H2S45299   3.425   9.787   2.573  0.1424  1.7333 -0.2959
  329DOPC    C345300   3.237   9.665   2.164 -0.6511 -0.2252 -0.5139
  329DOPC    HX45301   3.200   9.663   2.060 -0.6255  1.0867 -0.5636
  329DOPC    HY45302   3.163   9.728   2.220 -2.4581 -2.5038 -0.1647
  329DOPC   O3145303   3.229   9.531   2.217 -0.1176  0.2305  1.0841
  329DOPC   C3145304   3.209   9.513   2.347  1.1578  0.2555  0.0784
  329DOPC   O3245305   3.184   9.604   2.423  0.1191 -0.0772 -0.0443
  329DOPC   C3245306   3.203   9.370   2.396 -0.4449 -0.0191  0.0453
  329DOPC   H2X45307   3.130   9.372   2.479  1.1298  1.3654  1.4612
  329DOPC   H2Y45308   3.155   9.318   2.310 -1.7487  3.2839 -1.3744
  329DOPC   C2345309   3.606   9.887   2.509  0.1778 -0.7511 -0.1231
  329DOPC   H3R45310   3.557   9.986   2.500 -0.9797 -0.8543  3.3817
  329DOPC   H3S45311   3.681   9.862   2.431  0.0612  0.7281 -0.7277
  329DOPC   C2445312   3.667   9.868   2.646 -0.1487 -0.4524 -0.2298
  329DOPC   H4R45313   3.721   9.772   2.660 -0.2725 -0.3442  1.1913
  329DOPC   H4S45314   3.594   9.876   2.730  0.0636  0.5893 -0.1339
  329DOPC   C2545315   3.776   9.972   2.669 -0.0389  0.4907 -0.5786
  329DOPC   H5R45316   3.744  10.078   2.660  0.7989  0.8251  0.2101
  329DOPC   H5S45317   3.864   9.958   2.603  1.4844 -1.1466  1.6397
  329DOPC   C2645318   3.831   9.963   2.822  0.3709  0.6089  0.3193
  329DOPC   H6R45319   3.889   9.869   2.836 -0.0220 -0.0697 -2.1362
  329DOPC   H6S45320   3.736   9.959   2.880  0.3835 -1.4321  0.2747
  329DOPC   C2745321   3.918  10.084   2.860  0.1318 -0.4753  0.1884
  329DOPC   H7R45322   3.857  10.174   2.839  1.6590  1.5158  3.5601
  329DOPC   H7S45323   4.011  10.119   2.810  0.6317 -0.1033  1.3446
  329DOPC   C2845324   3.961  10.093   3.006 -0.0252  0.1550 -0.0557
  329DOPC   H8R45325   3.872  10.064   3.066  0.3927  2.0260  1.6045
  329DOPC   H8S45326   3.982  10.200   3.028 -0.5662  0.2005  0.2640
  329DOPC   C2945327   4.074  10.000   3.042 -0.1264  0.0071 -0.1673
  329DOPC   H9R45328   4.157  10.008   2.971  0.2204 -2.6858 -0.1551
  329DOPC  C21045329   4.079   9.899   3.133  0.3491  0.6167  0.0251
  329DOPC  H10R45330   4.175   9.845   3.134 -1.3230 -2.6362 -1.1825
  329DOPC  C21145331   3.966   9.855   3.232 -0.9960 -0.4155 -0.1150
  329DOPC  H11R45332   3.935   9.752   3.206  1.6106 -1.9442  2.2286
  329DOPC  H11S45333   3.877   9.921   3.233  0.4513  1.6399  1.0392
  329DOPC  C21245334   4.016   9.849   3.378  0.9043 -0.5315 -0.3930
  329DOPC  H12R45335   4.024   9.955   3.412 -1.0447 -0.2536 -0.7343
  329DOPC  H12S45336   4.115   9.804   3.403 -1.3273 -5.9482  0.1994
  329DOPC  C21345337   3.906   9.782   3.462 -0.3421 -0.4929  0.3849
  329DOPC  H13R45338   3.880   9.683   3.418 -1.6494 -0.2233  0.5058
  329DOPC  H13S45339   3.814   9.840   3.440  0.3423 -0.3897 -2.6875
  329DOPC  C21445340   3.936   9.769   3.606  0.8133 -0.0999  0.6117
  329DOPC  H14R45341   4.000   9.852   3.641  0.5049  0.4638 -0.1348
  329DOPC  H14S45342   3.989   9.672   3.621 -0.6975 -0.9258  0.8025
  329DOPC  C21545343   3.804   9.753   3.683 -0.0072  0.4927 -0.3762
  329DOPC  H15R45344   3.755   9.662   3.641  1.5955 -0.8036  0.4413
  329DOPC  H15S45345   3.740   9.842   3.662 -0.6076  0.1802  0.1015
  329DOPC  C21645346   3.830   9.726   3.832 -0.1463  0.2580  0.2542
  329DOPC  H16R45347   3.885   9.809   3.881  1.8332  0.8731 -2.7447
  329DOPC  H16S45348   3.882   9.628   3.840  0.7329  0.3497 -3.1199
  329DOPC  C21745349   3.695   9.711   3.906 -0.6378  0.5344 -0.1385
  329DOPC  H17R45350   3.664   9.612   3.867 -0.1597  1.1287 -2.1430
  329DOPC  H17S45351   3.630   9.793   3.870 -2.4659 -1.3578 -1.3918
  329DOPC  C21845352   3.688   9.705   4.058  0.0221  0.5025 -0.1977
  329DOPC  H18R45353   3.735   9.612   4.097 -0.1517  0.2020 -0.6877
  329DOPC  H18S45354   3.582   9.703   4.090 -0.6207 -0.2953 -2.1667
  329DOPC  H18T45355   3.732   9.797   4.103 -0.0366  1.6373 -2.3098
  329DOPC   C3345356   3.341   9.306   2.429  0.3254  0.3405  0.3390
  329DOPC   H3X45357   3.409   9.309   2.341  1.5609  1.6977  1.3045
  329DOPC   H3Y45358   3.311   9.204   2.461  1.1269  0.1001  0.3494
  329DOPC   C3445359   3.405   9.371   2.550 -0.3261 -0.5133 -0.1692
  329DOPC   H4X45360   3.396   9.482   2.547 -2.2483 -0.5929  0.8337
  329DOPC   H4Y45361   3.511   9.339   2.552 -0.3823 -0.6962 -0.0597
  329DOPC   C3545362   3.343   9.341   2.683 -0.3071  0.4858  0.0884
  329DOPC   H5X45363   3.354   9.232   2.704 -1.6808  0.3770  0.3229
  329DOPC   H5Y45364   3.234   9.358   2.673 -0.3097  0.4649  0.0804
  329DOPC   C3645365   3.390   9.419   2.809  0.1371  0.1513 -0.2925
  329DOPC   H6X45366   3.333   9.376   2.894  0.8882 -1.7741 -0.7161
  329DOPC   H6Y45367   3.499   9.398   2.811  0.4421  1.5836  2.2960
  329DOPC   C3745368   3.368   9.571   2.794 -0.5196  0.2546  0.3354
  329DOPC   H7X45369   3.452   9.614   2.736 -0.0608  1.2958  1.7110
  329DOPC   H7Y45370   3.271   9.592   2.744 -0.6781 -1.5590 -0.1781
  329DOPC   C3845371   3.357   9.637   2.931 -0.2015  0.9403  0.1641
  329DOPC   H8X45372   3.460   9.639   2.973  0.3045  2.9294 -1.0087
  329DOPC   H8Y45373   3.293   9.583   3.004  0.1915 -1.4541 -1.1733
  329DOPC   C3945374   3.305   9.780   2.916 -1.1319  0.1943  0.1282
  329DOPC   H9X45375   3.203   9.789   2.876 -1.6162 -1.0945  1.0099
  329DOPC  C31045376   3.357   9.889   2.979 -0.3214 -0.9465  0.3098
  329DOPC  H10X45377   3.304   9.982   2.956  1.2697 -0.1632 -0.4068
  329DOPC  C31145378   3.480   9.905   3.069 -0.0194  0.3693  0.9385
  329DOPC  H11X45379   3.537   9.988   3.022 -1.9129 -0.0283 -2.3731
  329DOPC  H11Y45380   3.540   9.812   3.059 -1.0628 -0.1449 -1.2314
  329DOPC  C31245381   3.436   9.937   3.213  0.2189 -0.5015 -0.6208
  329DOPC  H12X45382   3.381   9.851   3.256 -0.0023  0.0194  0.1649
  329DOPC  H12Y45383   3.379  10.033   3.209  1.6041  0.3795  0.0686
  329DOPC  C31345384   3.554   9.950   3.305  0.4876  0.5716 -0.2394
  329DOPC  H13X45385   3.625   9.867   3.290 -0.4314 -0.6825  1.9839
  329DOPC  H13Y45386   3.612  10.043   3.286  1.5591  0.0649  0.4834
  329DOPC  C31445387   3.504   9.939   3.451  0.2759  0.8460  0.1431
  329DOPC  H14X45388   3.489   9.832   3.477 -1.1628  1.0294  0.1415
  329DOPC  H14Y45389   3.590   9.964   3.516  1.0041 -0.9033 -0.0879
  329DOPC  C31545390   3.377  10.010   3.492 -0.5009 -0.0060  0.3666
  329DOPC  H15X45391   3.284   9.978   3.440 -0.4686 -1.8969  1.3663
  329DOPC  H15Y45392   3.379  10.112   3.448 -1.4682 -0.9847 -2.1707
  329DOPC  C31645393   3.350  10.007   3.641 -0.7249 -0.5531 -0.5359
  329DOPC  H16X45394   3.322   9.902   3.665 -0.3324 -0.4501  0.4292
  329DOPC  H16Y45395   3.442  10.040   3.695 -0.6426 -0.7976 -0.5262
  329DOPC  C31745396   3.235  10.108   3.674 -0.2027 -0.0161  0.0530
  329DOPC  H17X45397   3.274  10.209   3.647  0.0651  0.1381  1.0105
  329DOPC  H17Y45398   3.147  10.083   3.611 -0.1136 -3.0884  0.9879
  329DOPC  C31845399   3.189  10.121   3.823 -0.4208 -0.4691  0.7714
  329DOPC  H18X45400   3.250  10.178   3.896  1.6924 -1.9998  0.3084
  329DOPC  H18Y45401   3.092  10.174   3.830  0.0180  0.4878  0.0056
  329DOPC  H18Z45402   3.176  10.020   3.866 -1.4503 -1.3861 -1.5121
  330DOPC     N45403  11.642  10.025   1.968 -0.4847 -0.0737  0.6101
  330DOPC   C1245404  11.680  10.154   2.050  0.3192 -0.1518 -0.0284
  330DOPC  H12A45405  11.748  10.214   1.991  0.2586 -1.1603 -1.1700
  330DOPC  H12B45406  11.729  10.120   2.140  1.1719  1.0148 -0.0319
  330DOPC   C1345407  11.579   9.924   2.062  0.1075 -0.6317  0.0943
  330DOPC  H13A45408  11.522   9.851   2.006 -1.0386  1.1936 -1.2615
  330DOPC  H13B45409  11.661   9.875   2.111  2.9795  1.3914 -2.3138
  330DOPC  H13C45410  11.513   9.975   2.130  0.5248  0.4517 -0.2837
  330DOPC   C1445411  11.767   9.958   1.909 -0.5124  0.2264  0.0340
  330DOPC  H14A45412  11.822  10.023   1.843 -0.6457 -0.9691 -1.2846
  330DOPC  H14B45413  11.829   9.923   1.990  1.3192  2.1470 -0.4681
  330DOPC  H14C45414  11.740   9.872   1.850 -0.1795  0.6507 -0.7465
  330DOPC   C1545415  11.550  10.055   1.849 -0.1762 -0.4537 -0.7605
  330DOPC  H15A45416  11.468  10.113   1.888  0.7766 -0.0955  0.7923
  330DOPC  H15B45417  11.509   9.966   1.804  0.8482 -2.0798  1.3278
  330DOPC  H15C45418  11.601  10.114   1.774 -0.1000  0.8462  0.2784
  330DOPC   C1145419  11.560  10.238   2.104 -0.1693  0.7719 -0.3297
  330DOPC  H11A45420  11.498  10.182   2.177  1.4078 -0.0570  0.4375
  330DOPC  H11B45421  11.611  10.313   2.168  0.9016 -0.8190  0.7703
  330DOPC     P45422  11.459  10.436   1.960  0.3900  0.1376  0.1229
  330DOPC   O1345423  11.348  10.452   1.863  0.0552 -0.4675  0.0953
  330DOPC   O1445424  11.590  10.498   1.929  0.5621  0.0784 -0.6570
  330DOPC   O1245425  11.481  10.281   1.990  0.2625 -0.5784  0.3659
  330DOPC   O1145426  11.408  10.492   2.099 -0.3995 -0.1800 -0.6157
  330DOPC    C145427  11.299  10.431   2.168 -0.3423  0.1020 -0.0716
  330DOPC    HA45428  11.287  10.323   2.147 -1.5955 -0.3138  2.4195
  330DOPC    HB45429  11.205  10.481   2.138 -0.0274  1.4885  1.1416
  330DOPC    C245430  11.318  10.450   2.321 -0.6134  0.4869 -0.4889
  330DOPC    HS45431  11.357  10.551   2.347  1.7374 -0.7329  1.1089
  330DOPC   O2145432  11.409  10.340   2.352  0.0216 -0.2116  0.4487
  330DOPC   C2145433  11.494  10.377   2.444 -0.1173  0.1876 -0.3774
  330DOPC   O2245434  11.490  10.483   2.503 -0.5088  0.2643  0.6335
  330DOPC   C2245435  11.588  10.261   2.474 -0.8122  0.2363 -0.1617
  330DOPC   H2R45436  11.675  10.274   2.406  0.9422 -0.5964  1.8269
  330DOPC   H2S45437  11.530  10.166   2.462 -1.1217  0.3493  0.4171
  330DOPC    C345438  11.189  10.438   2.398  0.0400 -0.0767 -0.2371
  330DOPC    HX45439  11.153  10.336   2.376  1.4556  0.1598 -4.8200
  330DOPC    HY45440  11.106  10.495   2.351  0.9852  0.6617 -1.0820
  330DOPC   O3145441  11.210  10.453   2.536 -0.3558  0.1590 -0.6132
  330DOPC   C3145442  11.205  10.581   2.574  0.1623  0.2864 -0.0092
  330DOPC   O3245443  11.173  10.674   2.501 -0.1955 -0.0878 -0.4258
  330DOPC   C3245444  11.239  10.592   2.717  0.1055  0.4285 -0.6578
  330DOPC   H2X45445  11.349  10.577   2.721 -0.0633 -1.1388 -0.8431
  330DOPC   H2Y45446  11.223  10.696   2.753 -0.3826  0.3048 -0.5010
  330DOPC   C2345447  11.638  10.254   2.617 -0.3550 -1.0105  0.1842
  330DOPC   H3R45448  11.648  10.356   2.660 -3.4591 -0.2683 -0.6005
  330DOPC   H3S45449  11.738  10.206   2.624 -0.1491 -0.6813 -0.4524
  330DOPC   C2445450  11.530  10.186   2.704 -0.4805  0.5838  0.6252
  330DOPC   H4R45451  11.534  10.082   2.666  3.4380  1.0094 -0.6071
  330DOPC   H4S45452  11.433  10.233   2.677 -0.1804 -0.2240 -2.1652
  330DOPC   C2545453  11.556  10.199   2.857 -0.4397 -0.7116  1.0225
  330DOPC   H5R45454  11.563  10.303   2.894  1.3351 -0.0731 -0.9261
  330DOPC   H5S45455  11.656  10.156   2.876 -0.2247 -0.3449  0.7365
  330DOPC   C2645456  11.434  10.141   2.936 -0.2141  0.4319  0.0641
  330DOPC   H6R45457  11.425  10.033   2.911  0.1425  0.3838  0.1498
  330DOPC   H6S45458  11.339  10.194   2.910 -0.4356 -0.5575 -1.2548
  330DOPC   C2745459  11.470  10.151   3.079  0.4946 -0.1258 -0.1370
  330DOPC   H7R45460  11.476  10.260   3.100 -0.9778 -0.1242  0.4144
  330DOPC   H7S45461  11.569  10.112   3.109  0.1804 -0.2135  0.8087
  330DOPC   C2845462  11.367  10.094   3.178  0.2641  1.1541  0.0763
  330DOPC   H8R45463  11.272  10.150   3.178 -0.4005  0.0776 -1.2275
  330DOPC   H8S45464  11.402  10.115   3.281  0.4093  1.9490 -0.1307
  330DOPC   C2945465  11.342   9.946   3.152  0.5143 -0.0772  0.1313
  330DOPC   H9R45466  11.304   9.923   3.051 -2.6755  0.2149  1.1590
  330DOPC  C21045467  11.372   9.841   3.233 -0.0735  0.2250  0.3103
  330DOPC  H10R45468  11.349   9.739   3.198  0.4109  0.5878 -1.1388
  330DOPC  C21145469  11.426   9.859   3.368 -0.0573  0.2733 -0.1754
  330DOPC  H11R45470  11.494   9.946   3.381  0.0609 -0.1141  2.3923
  330DOPC  H11S45471  11.504   9.781   3.388  2.1695  2.8710  2.1040
  330DOPC  C21245472  11.314   9.862   3.468  0.1163 -0.1180 -0.2650
  330DOPC  H12R45473  11.259   9.771   3.436 -0.3953  0.3214 -0.6577
  330DOPC  H12S45474  11.246   9.949   3.454  2.1807  1.5985 -0.1789
  330DOPC  C21345475  11.347   9.859   3.619 -0.3183  0.1985  0.5017
  330DOPC  H13R45476  11.416   9.941   3.648 -1.2095  0.8222  0.9066
  330DOPC  H13S45477  11.374   9.753   3.639 -2.3045 -0.5453 -0.4477
  330DOPC  C21445478  11.221   9.889   3.699  0.8945  0.3735  0.1475
  330DOPC  H14R45479  11.134   9.830   3.664  1.7600  0.2007 -1.8604
  330DOPC  H14S45480  11.191   9.995   3.682  2.5093  0.6017 -1.6925
  330DOPC  C21545481  11.249   9.860   3.850  0.9023 -0.5391  0.3035
  330DOPC  H15R45482  11.322   9.940   3.877  0.8917 -0.9347  1.5429
  330DOPC  H15S45483  11.294   9.759   3.854 -0.5153 -1.5637 -4.0993
  330DOPC  C21645484  11.112   9.862   3.925 -0.3086  0.5882 -0.1492
  330DOPC  H16R45485  11.043   9.792   3.875 -1.7391  1.7176  0.1648
  330DOPC  H16S45486  11.065   9.961   3.902 -1.8665 -0.4721 -1.7953
  330DOPC  C21745487  11.115   9.829   4.076  0.3420 -0.4970  0.5750
  330DOPC  H17R45488  11.130   9.720   4.092 -1.9626 -0.7865  1.1165
  330DOPC  H17S45489  11.013   9.851   4.112  0.8704  2.1462  0.6438
  330DOPC  C21845490  11.212   9.914   4.160 -0.3014 -0.3035 -0.0756
  330DOPC  H18R45491  11.199  10.019   4.125 -1.8313 -0.7843 -1.0555
  330DOPC  H18S45492  11.316   9.880   4.143 -0.3101 -1.0554  1.2577
  330DOPC  H18T45493  11.182   9.899   4.266 -2.8958  0.6433 -0.6064
  330DOPC   C3345494  11.181  10.482   2.801  0.3497  0.4296  0.3222
  330DOPC   H3X45495  11.209  10.379   2.773 -1.1949 -0.4295  1.7442
  330DOPC   H3Y45496  11.071  10.487   2.793  0.1974 -0.6612  1.4091
  330DOPC   C3445497  11.214  10.495   2.958  0.2958 -0.0030  0.0241
  330DOPC   H4X45498  11.318  10.531   2.973  0.0350  0.6438  0.3296
  330DOPC   H4Y45499  11.221  10.392   2.998  2.1303  0.4801  1.0684
  330DOPC   C3545500  11.120  10.584   3.031  0.3386 -0.3396  0.2583
  330DOPC   H5X45501  11.011  10.563   3.026  0.5752 -1.2774 -1.3788
  330DOPC   H5Y45502  11.123  10.685   2.985  1.3440 -1.1311 -1.5007
  330DOPC   C3645503  11.158  10.603   3.184  0.5306 -0.8165  0.2181
  330DOPC   H6X45504  11.251  10.663   3.189 -0.0669  0.0011  2.2199
  330DOPC   H6Y45505  11.076  10.664   3.227 -0.6326 -0.5976 -2.1607
  330DOPC   C3745506  11.168  10.474   3.264 -0.7787 -0.6405  0.4630
  330DOPC   H7X45507  11.082  10.406   3.246 -1.0815  0.0536 -0.8421
  330DOPC   H7Y45508  11.258  10.423   3.225 -0.9570 -0.0214 -0.8217
  330DOPC   C3845509  11.192  10.503   3.415 -0.2558  0.5815  0.2814
  330DOPC   H8X45510  11.095  10.536   3.458 -1.9553 -2.4366 -0.8723
  330DOPC   H8Y45511  11.278  10.573   3.427  0.4312 -0.0952 -0.5199
  330DOPC   C3945512  11.233  10.390   3.501 -0.2094  0.2985  0.5387
  330DOPC   H9X45513  11.335  10.352   3.482 -0.2951 -1.6062  3.1992
  330DOPC  C31045514  11.161  10.321   3.590 -0.3595 -0.0405 -0.0580
  330DOPC  H10X45515  11.220  10.271   3.668 -1.1811 -3.9567 -1.6687
  330DOPC  C31145516  11.009  10.337   3.615  0.2764  0.1503  0.0911
  330DOPC  H11X45517  10.953  10.248   3.579 -0.2503  0.3837  0.3101
  330DOPC  H11Y45518  10.966  10.416   3.549  1.0399 -0.1353 -0.7678
  330DOPC  C31245519  10.965  10.371   3.761  0.0985 -0.0314  0.7992
  330DOPC  H12X45520  11.018  10.460   3.800  0.9625  0.6456 -1.7553
  330DOPC  H12Y45521  11.001  10.284   3.819 -1.6846 -0.8247  0.7988
  330DOPC  C31345522  10.809  10.388   3.780 -0.0699  0.4057 -0.4005
  330DOPC  H13X45523  10.767  10.296   3.734 -0.9448  1.7447 -2.3838
  330DOPC  H13Y45524  10.783  10.390   3.888  0.1531  0.1483 -0.3381
  330DOPC  C31445525  10.766  10.523   3.719  0.0362 -0.4044 -0.4365
  330DOPC  H14X45526  10.780  10.608   3.789 -0.5594 -2.0974  1.8602
  330DOPC  H14Y45527  10.832  10.539   3.632  0.5159 -0.1585 -0.0325
  330DOPC  C31545528  10.619  10.518   3.682  0.1026 -0.0220 -0.7355
  330DOPC  H15X45529  10.563  10.456   3.756 -0.2573 -0.6050 -1.4862
  330DOPC  H15Y45530  10.611  10.459   3.589 -1.3457  0.2671 -0.8264
  330DOPC  C31645531  10.559  10.658   3.673 -0.2122 -0.5544 -0.1306
  330DOPC  H16X45532  10.449  10.657   3.657 -0.0421  0.2564 -1.4480
  330DOPC  H16Y45533  10.563  10.714   3.768 -2.1425 -0.8110  0.1398
  330DOPC  C31745534  10.604  10.726   3.538  0.9247  1.2934  0.3247
  330DOPC  H17X45535  10.544  10.819   3.531 -0.6296  0.1979 -2.6144
  330DOPC  H17Y45536  10.714  10.737   3.538  0.9730  0.8756 -0.5473
  330DOPC  C31845537  10.557  10.647   3.416 -0.7115 -0.4115  0.5398
  330DOPC  H18X45538  10.451  10.617   3.430 -0.6653 -0.7005  0.2899
  330DOPC  H18Y45539  10.565  10.704   3.322  0.3392 -2.2471 -0.5559
  330DOPC  H18Z45540  10.613  10.552   3.404 -3.1661 -1.9259  0.3726
  331DOPC     N45541   1.452   7.678   1.365 -0.1462 -0.7959 -0.0695
  331DOPC   C1245542   1.455   7.578   1.482  0.0839  0.8807  0.5929
  331DOPC  H12A45543   1.486   7.491   1.426  1.1010  1.0479  0.8633
  331DOPC  H12B45544   1.359   7.547   1.520  0.5598  0.2825  1.3398
  331DOPC   C1345545   1.425   7.815   1.408  0.2252 -0.8003 -0.0596
  331DOPC  H13A45546   1.330   7.818   1.459  1.1039  1.5415  1.6476
  331DOPC  H13B45547   1.491   7.857   1.483 -0.7551 -3.5959  2.5719
  331DOPC  H13C45548   1.417   7.877   1.320 -1.9016 -3.7200 -2.1013
  331DOPC   C1445549   1.348   7.642   1.265  0.0463  0.2830 -0.1027
  331DOPC  H14A45550   1.247   7.650   1.302 -0.5730  0.0736 -1.6653
  331DOPC  H14B45551   1.368   7.703   1.179 -0.3935  0.0301 -0.3868
  331DOPC  H14C45552   1.357   7.540   1.232 -1.9604  0.8832 -2.8887
  331DOPC   C1545553   1.586   7.678   1.297 -0.1234  0.1443 -0.1070
  331DOPC  H15A45554   1.607   7.586   1.245 -1.5173  0.1973 -0.8094
  331DOPC  H15B45555   1.664   7.688   1.370  0.7398 -1.5036 -0.7618
  331DOPC  H15C45556   1.605   7.760   1.229  2.5497  0.6882  1.1841
  331DOPC   C1145557   1.564   7.579   1.589  0.8560  0.5896  0.7196
  331DOPC  H11A45558   1.541   7.672   1.645 -2.6983  0.5873 -0.5106
  331DOPC  H11B45559   1.559   7.492   1.657  1.2404  1.7493  2.2900
  331DOPC     P45560   1.786   7.464   1.542 -0.2678  0.1591  0.3286
  331DOPC   O1345561   1.914   7.507   1.482 -1.0424  0.3407  0.2630
  331DOPC   O1445562   1.707   7.350   1.482  0.4344  0.3237  0.0870
  331DOPC   O1245563   1.697   7.595   1.541 -0.4862 -0.0063  0.7529
  331DOPC   O1145564   1.807   7.437   1.698  0.3753  0.4566  0.6073
  331DOPC    C145565   1.921   7.478   1.773 -0.3299  0.7549 -0.0019
  331DOPC    HA45566   1.957   7.580   1.749  0.1813  0.2821 -1.2993
  331DOPC    HB45567   2.003   7.406   1.751 -1.8917 -0.3501 -2.6983
  331DOPC    C245568   1.895   7.472   1.927 -0.3160  0.2894  0.0693
  331DOPC    HS45569   1.917   7.368   1.958 -0.4717  0.6515  1.4407
  331DOPC   O2145570   1.765   7.514   1.958 -0.3253  0.0231  0.7385
  331DOPC   C2145571   1.674   7.425   1.951 -0.0989  0.5184 -0.6325
  331DOPC   O2245572   1.696   7.306   1.918 -0.2186  0.1302 -0.3428
  331DOPC   C2245573   1.543   7.479   1.989  0.1489  0.1074  0.4352
  331DOPC   H2R45574   1.470   7.395   1.983 -1.3941  1.4133  0.2053
  331DOPC   H2S45575   1.521   7.559   1.914  2.8162  0.1638 -0.3742
  331DOPC    C345576   1.992   7.571   2.000 -0.0584  0.0179  0.2273
  331DOPC    HX45577   1.984   7.668   1.947  1.0883 -0.2645 -0.4919
  331DOPC    HY45578   2.097   7.537   1.990 -0.1964 -0.2549 -0.3101
  331DOPC   O3145579   1.953   7.582   2.139  0.1393  0.4377  0.2471
  331DOPC   C3145580   1.992   7.491   2.217 -0.3677 -0.3254 -0.1258
  331DOPC   O3245581   2.044   7.386   2.184  0.0545 -0.1204  0.2199
  331DOPC   C3245582   1.981   7.531   2.360  0.0132  0.1471 -0.6469
  331DOPC   H2X45583   2.028   7.626   2.394 -0.0555  0.1808 -0.6463
  331DOPC   H2Y45584   1.873   7.535   2.384  0.0853 -1.6155  0.1722
  331DOPC   C2345585   1.552   7.542   2.132  0.3823  0.2080  0.1298
  331DOPC   H3R45586   1.451   7.559   2.174  0.6420 -1.3483  1.5110
  331DOPC   H3S45587   1.602   7.641   2.134 -0.8687  0.8694 -0.3672
  331DOPC   C2445588   1.595   7.434   2.243 -0.2358 -0.8269 -0.5564
  331DOPC   H4R45589   1.702   7.410   2.226 -0.7228 -2.1408 -1.9527
  331DOPC   H4S45590   1.560   7.333   2.215  0.0579 -1.0719 -0.0716
  331DOPC   C2545591   1.543   7.481   2.387  0.5002  0.5855  0.0239
  331DOPC   H5R45592   1.432   7.470   2.391  0.4101  1.4862  0.1562
  331DOPC   H5S45593   1.578   7.584   2.410  1.0429  0.5964 -0.7919
  331DOPC   C2645594   1.585   7.376   2.495  0.1139  0.8637 -0.3446
  331DOPC   H6R45595   1.696   7.385   2.496  0.2275 -0.1525  2.0825
  331DOPC   H6S45596   1.558   7.273   2.465 -0.7453  0.5200  1.4852
  331DOPC   C2745597   1.535   7.413   2.635  0.2488 -0.2253 -0.1858
  331DOPC   H7R45598   1.424   7.417   2.638  0.2863  0.4977  1.3562
  331DOPC   H7S45599   1.574   7.515   2.651  0.7255 -0.5257  0.6804
  331DOPC   C2845600   1.574   7.314   2.744 -0.3210  0.1169  0.9192
  331DOPC   H8R45601   1.537   7.211   2.725  0.0636 -0.1981  1.8176
  331DOPC   H8S45602   1.519   7.336   2.839  3.5270  1.8492  2.9480
  331DOPC   C2945603   1.726   7.299   2.759 -1.0772  0.4822 -0.0799
  331DOPC   H9R45604   1.768   7.239   2.677  0.5898  0.9541  0.3862
  331DOPC  C21045605   1.805   7.349   2.859 -0.1133  0.2795  0.1252
  331DOPC  H10R45606   1.912   7.325   2.860 -0.2047 -0.1070  1.2572
  331DOPC  C21145607   1.757   7.439   2.972  0.5401  0.2221 -0.2546
  331DOPC  H11R45608   1.651   7.474   2.961  0.6316  0.4074 -0.5677
  331DOPC  H11S45609   1.816   7.533   2.980  1.9905 -0.8199  2.3294
  331DOPC  C21245610   1.768   7.380   3.113  0.3914  0.1614  0.0998
  331DOPC  H12R45611   1.859   7.317   3.122  1.0126  0.6548 -2.0210
  331DOPC  H12S45612   1.681   7.315   3.136  1.0759 -0.5254  0.8205
  331DOPC  C21345613   1.774   7.486   3.224 -0.7959 -0.1520 -0.1406
  331DOPC  H13R45614   1.694   7.560   3.200 -0.6861  0.3974  1.1137
  331DOPC  H13S45615   1.870   7.540   3.211  1.2854 -2.7645  2.8196
  331DOPC  C21445616   1.768   7.436   3.362  0.3559 -0.1641  0.3054
  331DOPC  H14R45617   1.849   7.365   3.387  0.3456 -1.1732 -2.2372
  331DOPC  H14S45618   1.678   7.372   3.379 -0.6831  1.3904  0.8886
  331DOPC  C21545619   1.776   7.549   3.458  0.5055 -0.3435 -0.6620
  331DOPC  H15R45620   1.672   7.587   3.465 -0.4368 -2.2220 -3.2184
  331DOPC  H15S45621   1.846   7.630   3.427  0.7473  0.1925  1.1336
  331DOPC  C21645622   1.823   7.496   3.597  0.1810 -0.0858  0.4258
  331DOPC  H16R45623   1.929   7.528   3.610  0.6962 -2.1212  1.7467
  331DOPC  H16S45624   1.823   7.385   3.597  0.2684 -0.2475 -3.7740
  331DOPC  C21745625   1.726   7.547   3.714 -0.2978 -0.2267 -0.9857
  331DOPC  H17R45626   1.620   7.550   3.680 -0.0411 -1.5683 -1.9884
  331DOPC  H17S45627   1.761   7.650   3.739 -0.5322 -0.3015 -0.3190
  331DOPC  C21845628   1.744   7.469   3.845 -0.4589  0.4936  0.5989
  331DOPC  H18R45629   1.664   7.492   3.919 -1.6793  1.4930 -0.9724
  331DOPC  H18S45630   1.839   7.492   3.898 -1.7270  1.7148  2.4721
  331DOPC  H18T45631   1.743   7.360   3.824  2.1487  0.7833 -1.5401
  331DOPC   C3345632   2.031   7.424   2.455 -0.1730  0.2856 -0.2016
  331DOPC   H3X45633   2.061   7.330   2.406 -0.1768 -0.6076  1.4441
  331DOPC   H3Y45634   1.952   7.414   2.532  2.0137  1.1089  2.3103
  331DOPC   C3445635   2.160   7.456   2.536 -0.4827 -0.0027  0.0056
  331DOPC   H4X45636   2.234   7.499   2.465 -0.3965 -1.3337 -0.7370
  331DOPC   H4Y45637   2.190   7.364   2.590  0.1713 -0.0071 -0.3529
  331DOPC   C3545638   2.133   7.559   2.645 -0.3486  0.2451 -1.0036
  331DOPC   H5X45639   2.043   7.528   2.703  0.2026  0.7590  0.1575
  331DOPC   H5Y45640   2.113   7.654   2.592  1.0072  1.6051  0.8199
  331DOPC   C3645641   2.253   7.587   2.738  0.1951 -0.2884  0.1691
  331DOPC   H6X45642   2.336   7.630   2.679  0.0639  0.0361  0.2169
  331DOPC   H6Y45643   2.215   7.660   2.813 -1.2755  0.7748 -1.5115
  331DOPC   C3745644   2.316   7.463   2.805 -0.1994 -0.3330 -0.4053
  331DOPC   H7X45645   2.247   7.387   2.848  0.1898 -0.1269  0.6272
  331DOPC   H7Y45646   2.372   7.407   2.727 -0.7312  0.4865 -1.3844
  331DOPC   C3845647   2.419   7.504   2.913 -0.4713  0.0123 -0.1233
  331DOPC   H8X45648   2.501   7.562   2.866  0.2408 -1.4529 -0.7402
  331DOPC   H8Y45649   2.467   7.410   2.947  1.1412  0.3195 -1.4451
  331DOPC   C3945650   2.352   7.586   3.023  0.4471  0.3687 -0.6223
  331DOPC   H9X45651   2.406   7.680   3.040  1.1579 -0.0077 -0.7178
  331DOPC  C31045652   2.265   7.557   3.116  0.9584 -0.3141 -0.3897
  331DOPC  H10X45653   2.216   7.641   3.167 -0.3937 -0.4409 -1.4441
  331DOPC  C31145654   2.200   7.419   3.132  0.3731 -0.4435 -0.9249
  331DOPC  H11X45655   2.254   7.330   3.094 -1.2066 -2.5708  1.4758
  331DOPC  H11Y45656   2.103   7.421   3.077 -0.4234 -2.1685  0.3009
  331DOPC  C31245657   2.175   7.389   3.282 -0.0689 -0.1772  0.4945
  331DOPC  H12X45658   2.097   7.449   3.334 -0.8942 -0.1707 -0.7003
  331DOPC  H12Y45659   2.269   7.385   3.341 -0.5206 -1.9444  1.1524
  331DOPC  C31345660   2.130   7.237   3.304 -0.4233  0.6122 -0.2273
  331DOPC  H13X45661   2.023   7.225   3.277 -0.3362  2.0088 -1.2835
  331DOPC  H13Y45662   2.195   7.178   3.236  0.8732  0.5318  1.0295
  331DOPC  C31445663   2.169   7.193   3.444  0.3791 -0.1070  0.8372
  331DOPC  H14X45664   2.279   7.194   3.461  0.7254  0.4727 -1.2705
  331DOPC  H14Y45665   2.136   7.272   3.515 -2.2894 -0.1034 -0.2735
  331DOPC  C31545666   2.102   7.062   3.479  0.1513  0.2732 -0.1120
  331DOPC  H15X45667   2.140   6.980   3.415 -1.1141 -0.6443  0.2593
  331DOPC  H15Y45668   1.991   7.065   3.468  0.1251 -0.5617 -0.1079
  331DOPC  C31645669   2.132   7.013   3.617  0.0027  0.5134 -0.5320
  331DOPC  H16X45670   2.238   6.983   3.629 -0.8393 -2.7540 -0.1878
  331DOPC  H16Y45671   2.109   7.094   3.690 -1.3611 -0.7033  0.4550
  331DOPC  C31745672   2.037   6.901   3.654  0.0094  0.1945 -0.3386
  331DOPC  H17X45673   1.937   6.924   3.612 -0.5285 -2.3098 -0.6158
  331DOPC  H17Y45674   2.063   6.803   3.609 -0.4776 -0.9934  1.8502
  331DOPC  C31845675   2.046   6.883   3.807  0.0622  0.1733 -0.8061
  331DOPC  H18X45676   2.006   6.966   3.869  1.2008  0.1649 -0.0238
  331DOPC  H18Y45677   1.982   6.793   3.820  0.2798 -0.0471 -1.2243
  331DOPC  H18Z45678   2.150   6.863   3.840  0.8777  4.0698 -0.4615
  332DOPC     N45679   7.633   5.435   2.182  0.2551  0.0053  0.0566
  332DOPC   C1245680   7.533   5.317   2.189  0.4135 -0.1969  0.1220
  332DOPC  H12A45681   7.571   5.231   2.136  0.2898 -1.1997  1.6066
  332DOPC  H12B45682   7.446   5.361   2.142  0.7273 -0.4302 -0.6967
  332DOPC   C1345683   7.754   5.397   2.256 -0.7487  0.1396  0.3628
  332DOPC  H13A45684   7.774   5.294   2.228 -0.5251  0.3506 -0.2756
  332DOPC  H13B45685   7.841   5.454   2.227  0.4812 -1.5010  0.6884
  332DOPC  H13C45686   7.747   5.397   2.363  0.0151  0.5381  0.4173
  332DOPC   C1445687   7.569   5.558   2.249  0.2237  0.7441 -0.2419
  332DOPC  H14A45688   7.635   5.643   2.245  0.8580  0.2483 -0.3499
  332DOPC  H14B45689   7.476   5.583   2.199 -0.4736  0.7319  1.0107
  332DOPC  H14C45690   7.544   5.522   2.348 -1.9677 -0.7279 -1.2395
  332DOPC   C1545691   7.662   5.473   2.044  0.3529 -0.1019 -0.2776
  332DOPC  H15A45692   7.566   5.503   2.005  1.0972 -0.8863 -2.9258
  332DOPC  H15B45693   7.698   5.386   1.991  1.9413  0.7733 -0.7111
  332DOPC  H15C45694   7.732   5.555   2.040  1.4002 -0.9910 -1.1416
  332DOPC   C1145695   7.497   5.257   2.322 -0.9070 -0.0963 -0.3714
  332DOPC  H11A45696   7.452   5.158   2.301 -0.9150  0.2025 -1.8634
  332DOPC  H11B45697   7.587   5.232   2.383 -1.5030 -1.1008  0.1243
  332DOPC     P45698   7.262   5.343   2.415 -0.4255  0.2271 -0.4783
  332DOPC   O1345699   7.219   5.207   2.376  0.4885 -0.2086 -0.1971
  332DOPC   O1445700   7.201   5.461   2.349 -0.3617 -0.0491  0.1011
  332DOPC   O1245701   7.422   5.348   2.395 -0.3343 -0.2210  0.0838
  332DOPC   O1145702   7.260   5.340   2.581 -0.0132 -0.3704 -0.2838
  332DOPC    C145703   7.247   5.463   2.654  0.5398  0.0066  0.2371
  332DOPC    HA45704   7.211   5.432   2.755 -1.9516 -0.2452 -0.6724
  332DOPC    HB45705   7.157   5.515   2.618 -2.3970 -2.9020  2.7046
  332DOPC    C245706   7.374   5.551   2.656  0.0058 -0.2159  0.5374
  332DOPC    HS45707   7.390   5.581   2.550  2.4200 -0.6143  0.7230
  332DOPC   O2145708   7.489   5.472   2.691  0.1708  0.4446 -0.3407
  332DOPC   C2145709   7.603   5.512   2.636 -0.8468 -0.7385  0.2532
  332DOPC   O2245710   7.615   5.624   2.583 -0.2666 -0.2083 -0.4733
  332DOPC   C2245711   7.710   5.401   2.638  0.6594  0.4681 -0.3305
  332DOPC   H2R45712   7.689   5.332   2.554  3.2002  0.3607 -0.9665
  332DOPC   H2S45713   7.692   5.348   2.734  1.5010 -0.3389 -0.6072
  332DOPC    C345714   7.360   5.675   2.742  0.8384 -0.0990 -0.2056
  332DOPC    HX45715   7.452   5.736   2.726 -0.9274  2.5083 -1.0036
  332DOPC    HY45716   7.365   5.640   2.848 -2.4028 -1.3081 -0.3447
  332DOPC   O3145717   7.236   5.740   2.716  0.2979 -0.1963  0.2295
  332DOPC   C3145718   7.235   5.837   2.628 -0.3686 -0.3476 -0.3625
  332DOPC   O3245719   7.335   5.871   2.569  0.2695  0.3646  0.2267
  332DOPC   C3245720   7.098   5.897   2.632 -0.2916  0.0260  0.3782
  332DOPC   H2X45721   7.103   6.006   2.653  0.8639  0.3349 -1.2811
  332DOPC   H2Y45722   7.057   5.878   2.530  0.3985  1.1678 -0.1354
  332DOPC   C2345723   7.849   5.463   2.628 -0.1130  0.3928 -0.5669
  332DOPC   H3R45724   7.883   5.504   2.726 -0.1348  0.7017 -0.6864
  332DOPC   H3S45725   7.840   5.556   2.568 -2.2663  0.4675 -0.1961
  332DOPC   C2445726   7.959   5.363   2.584 -0.1580 -1.3306 -0.4969
  332DOPC   H4R45727   8.060   5.408   2.573 -0.9905  1.0499  0.9981
  332DOPC   H4S45728   7.931   5.333   2.481 -2.8186  0.5291 -0.3917
  332DOPC   C2545729   7.971   5.244   2.682 -0.2936  0.9651  0.3909
  332DOPC   H5R45730   8.000   5.152   2.627 -1.3826 -0.4869  2.1246
  332DOPC   H5S45731   7.869   5.216   2.716 -0.8882 -0.2076 -2.1411
  332DOPC   C2645732   8.051   5.260   2.808  0.3972  0.0585 -0.0345
  332DOPC   H6R45733   8.009   5.337   2.876  0.0104  0.7267 -1.0013
  332DOPC   H6S45734   8.149   5.300   2.773 -0.1442 -1.2795 -3.4517
  332DOPC   C2745735   8.070   5.117   2.878 -0.7321  0.4421  0.2981
  332DOPC   H7R45736   8.140   5.065   2.809  0.7043 -0.7812  2.5675
  332DOPC   H7S45737   7.976   5.059   2.884 -0.4899 -0.4621 -2.8148
  332DOPC   C2845738   8.136   5.122   3.017  0.0972  0.3491 -0.3721
  332DOPC   H8R45739   8.073   5.192   3.077  1.4537  2.4927 -1.3177
  332DOPC   H8S45740   8.231   5.180   3.017 -0.5892  1.5015 -0.1306
  332DOPC   C2945741   8.165   4.988   3.075  0.1142 -0.4098 -0.1271
  332DOPC   H9R45742   8.214   4.922   3.003  0.0672  2.0025 -2.5130
  332DOPC  C21045743   8.125   4.939   3.195 -0.6086  0.2091 -0.7789
  332DOPC  H10R45744   8.148   4.833   3.210  3.1945  0.8940 -0.6596
  332DOPC  C21145745   8.049   5.008   3.300 -0.3426  0.4065 -0.1217
  332DOPC  H11R45746   7.980   4.932   3.342  0.0741 -0.6952 -1.3712
  332DOPC  H11S45747   8.007   5.099   3.250 -1.6124 -0.4894 -0.7419
  332DOPC  C21245748   8.138   5.069   3.409 -0.4018  0.1473 -0.6395
  332DOPC  H12R45749   8.085   5.138   3.478 -1.7611 -1.6907  0.2298
  332DOPC  H12S45750   8.230   5.112   3.363  0.9515 -1.7060  0.1992
  332DOPC  C21345751   8.196   4.956   3.495  0.4171  0.7680  0.5637
  332DOPC  H13R45752   8.235   4.880   3.425  0.3467 -0.2195  1.5709
  332DOPC  H13S45753   8.118   4.918   3.565 -0.5380  2.7302  0.6449
  332DOPC  C21445754   8.316   4.999   3.577  0.0599 -0.5655  0.2663
  332DOPC  H14R45755   8.283   5.082   3.644  1.7813  0.3497  0.0505
  332DOPC  H14S45756   8.397   5.044   3.515  1.3021  0.0999  2.2984
  332DOPC  C21545757   8.377   4.876   3.647  0.6008  0.0399  0.0106
  332DOPC  H15R45758   8.430   4.804   3.582  1.2968  0.4966  0.0544
  332DOPC  H15S45759   8.292   4.827   3.699 -0.1407  0.1893 -1.0320
  332DOPC  C21645760   8.480   4.925   3.755  0.6055  0.3679  0.3051
  332DOPC  H16R45761   8.482   4.855   3.841 -2.4594 -2.1271 -1.4338
  332DOPC  H16S45762   8.447   5.025   3.792 -1.1341 -0.5151  1.2728
  332DOPC  C21745763   8.614   4.927   3.688  0.1149 -0.0342 -0.4121
  332DOPC  H17R45764   8.596   4.975   3.590 -3.2075 -2.2447 -1.0492
  332DOPC  H17S45765   8.645   4.822   3.670 -1.6385 -0.8003  0.7247
  332DOPC  C21845766   8.721   5.004   3.766  0.2386  0.1558  0.3732
  332DOPC  H18R45767   8.754   5.089   3.702 -0.9275  1.1314  1.0241
  332DOPC  H18S45768   8.800   4.936   3.804 -0.4446 -0.8768 -0.0417
  332DOPC  H18T45769   8.681   5.047   3.860 -0.4097 -0.3050  0.3124
  332DOPC   C3345770   7.007   5.832   2.743  0.2469  0.4583 -0.8335
  332DOPC   H3X45771   7.063   5.844   2.838  0.4623 -0.0951 -0.8854
  332DOPC   H3Y45772   7.009   5.721   2.731 -2.3847  0.2899 -0.3183
  332DOPC   C3445773   6.866   5.890   2.745 -1.1483 -0.2305 -0.2537
  332DOPC   H4X45774   6.840   5.907   2.638  2.5341 -0.7862 -1.3725
  332DOPC   H4Y45775   6.864   5.986   2.802  0.7622  0.0803 -0.6261
  332DOPC   C3545776   6.763   5.789   2.798  0.5357  0.2198  0.5157
  332DOPC   H5X45777   6.789   5.694   2.746  0.7005  0.5874 -0.0853
  332DOPC   H5Y45778   6.665   5.823   2.758  0.1968  0.6467  1.6713
  332DOPC   C3645779   6.756   5.771   2.955  0.0563  0.0693  0.9753
  332DOPC   H6X45780   6.850   5.725   2.991  1.4099  2.5282  0.8077
  332DOPC   H6Y45781   6.750   5.875   2.995 -0.9222  1.4081 -2.2691
  332DOPC   C3745782   6.637   5.694   3.005 -0.7947  0.2087 -1.0143
  332DOPC   H7X45783   6.537   5.738   2.984 -1.6952 -0.8643  0.8067
  332DOPC   H7Y45784   6.645   5.592   2.961  0.4975 -0.5062  0.7922
  332DOPC   C3845785   6.633   5.694   3.162  0.1419 -0.4432 -0.2103
  332DOPC   H8X45786   6.527   5.676   3.191  1.1449 -4.0101  1.8643
  332DOPC   H8Y45787   6.657   5.797   3.193 -2.1204  0.2472 -0.5302
  332DOPC   C3945788   6.723   5.585   3.216  0.3309  0.3623  0.2614
  332DOPC   H9X45789   6.827   5.615   3.233  0.2376  0.6812  0.2772
  332DOPC  C31045790   6.697   5.451   3.227 -0.2183 -0.4623 -0.7549
  332DOPC  H10X45791   6.779   5.384   3.257 -0.0195  1.2545  3.0369
  332DOPC  C31145792   6.563   5.383   3.218 -0.4075  0.2252 -0.4023
  332DOPC  H11X45793   6.479   5.454   3.202 -1.4341 -1.1144 -1.2113
  332DOPC  H11Y45794   6.547   5.336   3.317  0.9192  2.6858  1.0694
  332DOPC  C31245795   6.564   5.267   3.119  0.5888 -0.1093  0.3471
  332DOPC  H12X45796   6.594   5.306   3.019  1.2989 -1.3355  0.0565
  332DOPC  H12Y45797   6.459   5.231   3.108  1.1589 -1.2107 -2.4193
  332DOPC  C31345798   6.662   5.147   3.146  0.6203 -0.2601  0.8240
  332DOPC  H13X45799   6.765   5.187   3.155  0.9955 -0.8479 -0.5467
  332DOPC  H13Y45800   6.626   5.093   3.236  0.6871 -1.6834  0.0212
  332DOPC  C31445801   6.664   5.046   3.025  0.8476 -0.0505 -0.6088
  332DOPC  H14X45802   6.688   5.105   2.934  0.5761 -1.1202 -1.4063
  332DOPC  H14Y45803   6.747   4.974   3.044 -0.3242 -0.7814  2.3484
  332DOPC  C31545804   6.533   4.963   3.003 -0.0197 -0.0380 -0.2503
  332DOPC  H15X45805   6.466   5.029   2.943 -0.4692  1.4271  1.7115
  332DOPC  H15Y45806   6.486   4.941   3.101 -0.2210  1.6051  0.0617
  332DOPC  C31645807   6.561   4.827   2.938 -0.0614 -0.1283  0.5640
  332DOPC  H16X45808   6.630   4.767   3.002 -0.2730 -0.6865  0.2731
  332DOPC  H16Y45809   6.602   4.831   2.835  0.1244 -2.1996  0.5188
  332DOPC  C31745810   6.432   4.741   2.935 -0.7417  0.5820  0.7398
  332DOPC  H17X45811   6.399   4.719   3.039 -1.2857  0.1591  0.4848
  332DOPC  H17Y45812   6.357   4.802   2.880  0.3157  2.0396  0.8523
  332DOPC  C31845813   6.455   4.601   2.869  0.1633  0.1319 -0.2919
  332DOPC  H18X45814   6.454   4.605   2.758  2.9954  0.0239 -0.3987
  332DOPC  H18Y45815   6.549   4.553   2.904  0.5787 -0.6367 -2.3327
  332DOPC  H18Z45816   6.376   4.530   2.900  0.9072 -0.4804  0.2611
  333DOPC     N45817  10.952   5.084   1.345 -0.6242 -0.0915  0.3685
  333DOPC   C1245818  10.827   5.163   1.307 -0.4414  1.2882  0.0222
  333DOPC  H12A45819  10.788   5.103   1.226  2.4979 -0.3634 -0.3302
  333DOPC  H12B45820  10.851   5.261   1.270  0.0900  1.4471  0.7813
  333DOPC   C1345821  11.045   5.059   1.232  0.5253 -0.5145 -0.7161
  333DOPC  H13A45822  11.139   5.015   1.265  0.5205 -1.0445 -1.3860
  333DOPC  H13B45823  11.009   4.986   1.162 -0.9281 -0.5960  0.0817
  333DOPC  H13C45824  11.064   5.147   1.172 -1.6014  0.6333  0.1986
  333DOPC   C1445825  10.919   4.949   1.403 -0.3275 -0.0526  0.7633
  333DOPC  H14A45826  10.861   4.968   1.492  0.3606  0.6815  1.0709
  333DOPC  H14B45827  10.856   4.894   1.335  0.6765 -0.3385  0.0359
  333DOPC  H14C45828  10.999   4.897   1.453 -0.6337 -1.1084  0.1915
  333DOPC   C1545829  11.024   5.163   1.452  0.5047  0.3280 -0.3112
  333DOPC  H15A45830  11.102   5.101   1.495  0.9828  0.8069 -0.4802
  333DOPC  H15B45831  10.951   5.202   1.522  0.6367  1.5182 -0.8266
  333DOPC  H15C45832  11.064   5.254   1.409  1.8643 -0.0655  0.0575
  333DOPC   C1145833  10.713   5.167   1.416  0.4801  0.2959  0.7136
  333DOPC  H11A45834  10.625   5.213   1.367  2.2439  0.5571 -2.4977
  333DOPC  H11B45835  10.685   5.062   1.440  1.3272  0.1967  1.3142
  333DOPC     P45836  10.732   5.388   1.558 -0.2185 -0.3174 -0.4809
  333DOPC   O1345837  10.591   5.426   1.541 -0.3320  0.5252  0.8227
  333DOPC   O1445838  10.831   5.459   1.477 -0.1903  0.1973 -0.0673
  333DOPC   O1245839  10.754   5.233   1.532  0.5063 -0.4484  0.5989
  333DOPC   O1145840  10.770   5.398   1.707 -0.1757 -0.5329 -0.4744
  333DOPC    C145841  10.883   5.337   1.766  0.8545  0.3709  0.0800
  333DOPC    HA45842  10.972   5.371   1.710  0.9412 -1.6353 -1.1014
  333DOPC    HB45843  10.883   5.226   1.760  1.1185  0.3705  0.0775
  333DOPC    C245844  10.898   5.363   1.916  0.2057 -0.1302 -1.1308
  333DOPC    HS45845  10.950   5.276   1.962 -1.0674 -0.9588 -1.2045
  333DOPC   O2145846  10.770   5.380   1.977 -0.5223  0.7294  0.4191
  333DOPC   C2145847  10.705   5.265   1.991 -0.2416 -0.5650  0.4014
  333DOPC   O2245848  10.740   5.155   1.956 -0.0529 -0.2686 -0.2051
  333DOPC   C2245849  10.567   5.301   2.040  0.5275  0.5730  0.4139
  333DOPC   H2R45850  10.517   5.217   2.092 -1.4102  0.3158 -1.6894
  333DOPC   H2S45851  10.498   5.321   1.955 -1.7787  0.0378  2.0863
  333DOPC    C345852  10.991   5.484   1.954 -0.0923  0.4524  0.4093
  333DOPC    HX45853  10.943   5.575   1.913 -0.4077 -0.0572 -0.3625
  333DOPC    HY45854  11.091   5.472   1.906 -1.1327 -1.9934 -1.3283
  333DOPC   O3145855  11.001   5.495   2.095 -0.5365 -0.0749  0.0762
  333DOPC   C3145856  11.067   5.600   2.138 -0.6487  0.2513 -0.0838
  333DOPC   O3245857  11.124   5.679   2.071 -0.5520 -0.1230  0.5408
  333DOPC   C3245858  11.065   5.597   2.288 -0.7051 -0.2294  0.3004
  333DOPC   H2X45859  11.121   5.504   2.312 -1.4055 -1.6452 -3.0541
  333DOPC   H2Y45860  11.132   5.682   2.316 -2.1576  1.9803 -2.4243
  333DOPC   C2345861  10.555   5.426   2.132 -0.4286 -0.3193  0.4309
  333DOPC   H3R45862  10.448   5.457   2.130 -0.0188  1.3089  1.4341
  333DOPC   H3S45863  10.620   5.504   2.087 -0.8632 -1.6544 -2.8341
  333DOPC   C2445864  10.592   5.388   2.277 -0.1632  0.4722 -0.2017
  333DOPC   H4R45865  10.652   5.468   2.327  0.3286 -0.7732  1.2676
  333DOPC   H4S45866  10.659   5.300   2.272  0.8145  1.2175 -0.6638
  333DOPC   C2545867  10.461   5.364   2.358 -0.0723  0.2890  0.0310
  333DOPC   H5R45868  10.479   5.305   2.451 -2.0149 -1.4816 -0.6318
  333DOPC   H5S45869  10.387   5.304   2.301 -0.4159 -1.7354  2.4564
  333DOPC   C2645870  10.397   5.498   2.399  0.0484  0.3930 -0.2989
  333DOPC   H6R45871  10.368   5.542   2.301 -0.2770 -1.5775 -1.1319
  333DOPC   H6S45872  10.465   5.573   2.446 -2.4477  2.8309 -0.3489
  333DOPC   C2745873  10.275   5.481   2.485  0.9719 -0.1954 -0.3247
  333DOPC   H7R45874  10.209   5.407   2.434  0.0185 -0.1497  0.7915
  333DOPC   H7S45875  10.229   5.582   2.483  1.6259  0.1602  1.0813
  333DOPC   C2845876  10.289   5.433   2.633 -0.8152  0.5381  0.2080
  333DOPC   H8R45877  10.359   5.347   2.643  2.1862  2.6609 -0.9878
  333DOPC   H8S45878  10.193   5.399   2.678 -0.2046 -2.2522 -0.3941
  333DOPC   C2945879  10.342   5.536   2.724  0.9202  0.0362  1.0067
  333DOPC   H9R45880  10.372   5.629   2.674  0.1859 -0.2051  0.0899
  333DOPC  C21045881  10.349   5.528   2.859 -0.5368 -1.1744  0.5511
  333DOPC  H10R45882  10.399   5.614   2.907 -1.9257  0.8613 -1.4301
  333DOPC  C21145883  10.318   5.420   2.955 -0.3311 -0.1732  0.4142
  333DOPC  H11R45884  10.407   5.361   2.986  0.1100  0.3908  0.2363
  333DOPC  H11S45885  10.255   5.341   2.908  1.0364  1.7655 -5.5378
  333DOPC  C21245886  10.254   5.472   3.087 -0.7784 -0.7657 -0.2733
  333DOPC  H12R45887  10.178   5.550   3.067 -0.4761 -0.1176  0.9612
  333DOPC  H12S45888  10.328   5.526   3.150  0.0366 -2.8244  0.6362
  333DOPC  C21345889  10.186   5.358   3.166 -0.9909  0.4101  0.1007
  333DOPC  H13R45890  10.254   5.270   3.160 -0.5961  0.5708  1.7459
  333DOPC  H13S45891  10.087   5.323   3.131  0.2140 -3.9944  0.4650
  333DOPC  C21445892  10.178   5.392   3.318  0.0884 -0.1889  0.7468
  333DOPC  H14R45893  10.154   5.499   3.334 -0.6424 -0.4798  1.6732
  333DOPC  H14S45894  10.277   5.374   3.365  1.6730  0.8087 -1.9720
  333DOPC  C21545895  10.068   5.321   3.395 -0.1682  0.1343  0.2351
  333DOPC  H15R45896  10.087   5.217   3.363 -2.5756 -0.4190  0.3709
  333DOPC  H15S45897   9.968   5.363   3.368  0.6533  3.9694  2.4230
  333DOPC  C21645898  10.080   5.328   3.549 -1.3169  0.6107 -0.0600
  333DOPC  H16R45899  10.083   5.437   3.570  0.8981  0.4342  0.8141
  333DOPC  H16S45900  10.177   5.287   3.584 -0.8347 -0.8484 -2.8393
  333DOPC  C21745901   9.972   5.250   3.618  0.2174 -0.0834 -0.0022
  333DOPC  H17R45902   9.871   5.279   3.582  0.2842  1.3277  0.8726
  333DOPC  H17S45903   9.982   5.278   3.725 -1.5220  1.5846 -0.2274
  333DOPC  C21845904   9.991   5.099   3.615 -0.2318 -0.1721 -0.8315
  333DOPC  H18R45905  10.086   5.087   3.670 -0.1633  3.0327 -0.0686
  333DOPC  H18S45906   9.987   5.050   3.515 -2.2481  2.4324 -2.1488
  333DOPC  H18T45907   9.914   5.053   3.682  0.4417 -0.5070 -0.2783
  333DOPC   C3345908  10.917   5.613   2.342  0.1605  0.1325  0.3523
  333DOPC   H3X45909  10.853   5.523   2.329 -0.1015  0.5568 -1.7256
  333DOPC   H3Y45910  10.878   5.702   2.288  0.7634  0.4259  0.4036
  333DOPC   C3445911  10.915   5.661   2.487 -0.6775 -0.4664 -0.3128
  333DOPC   H4X45912  10.958   5.761   2.509  2.2480 -2.0359  1.9670
  333DOPC   H4Y45913  10.979   5.591   2.545 -3.4600 -1.1024  2.2046
  333DOPC   C3545914  10.780   5.645   2.563  0.4739 -0.2730 -0.0673
  333DOPC   H5X45915  10.738   5.542   2.574  0.3848 -0.2741 -0.3875
  333DOPC   H5Y45916  10.707   5.714   2.516  0.8049  0.9994  1.2296
  333DOPC   C3645917  10.806   5.702   2.703  0.0506 -0.4436 -0.3220
  333DOPC   H6X45918  10.886   5.654   2.763 -0.5684  0.8840  1.7159
  333DOPC   H6Y45919  10.841   5.807   2.690  0.7445 -0.5512  0.5872
  333DOPC   C3745920  10.678   5.700   2.803  0.0463  0.1342  0.5828
  333DOPC   H7X45921  10.603   5.766   2.754  1.0479  1.9333  1.3713
  333DOPC   H7Y45922  10.628   5.602   2.807 -0.0902  0.2372  1.8124
  333DOPC   C3845923  10.716   5.751   2.945 -0.1062  0.5463  0.0797
  333DOPC   H8X45924  10.805   5.693   2.978 -1.1665  0.0605  2.2565
  333DOPC   H8Y45925  10.623   5.732   3.002 -0.9376 -1.9899 -1.9337
  333DOPC   C3945926  10.731   5.902   2.950 -0.0087 -0.0059  0.1256
  333DOPC   H9X45927  10.653   5.970   2.912  0.7349  2.0589  2.0170
  333DOPC  C31045928  10.832   5.966   3.010  0.3443 -0.1490  0.4728
  333DOPC  H10X45929  10.842   6.075   2.994 -1.8760 -0.1639 -1.4527
  333DOPC  C31145930  10.953   5.908   3.074 -0.1573  0.2144 -0.0671
  333DOPC  H11X45931  11.039   5.961   3.027 -0.1567 -0.0968 -0.4203
  333DOPC  H11Y45932  10.960   5.799   3.055 -0.8991  0.5063 -2.4256
  333DOPC  C31245933  10.945   5.925   3.228  0.3685 -0.0299  0.0927
  333DOPC  H12X45934  10.841   5.948   3.261 -0.0590  0.2162 -1.3191
  333DOPC  H12Y45935  11.003   6.018   3.245 -0.5624  0.5313  0.2839
  333DOPC  C31345936  10.993   5.799   3.301  0.8171 -0.3984  0.4130
  333DOPC  H13X45937  10.918   5.718   3.289  0.8581 -0.3351 -0.3469
  333DOPC  H13Y45938  11.087   5.764   3.254 -0.5514  0.0711 -2.9822
  333DOPC  C31445939  11.025   5.819   3.446 -0.1760  0.3155 -0.5139
  333DOPC  H14X45940  11.108   5.893   3.453  1.2517 -1.1214 -1.3917
  333DOPC  H14Y45941  10.936   5.862   3.497 -1.7654 -0.4999 -2.4703
  333DOPC  C31545942  11.075   5.691   3.510  0.1353 -0.2972 -0.0835
  333DOPC  H15X45943  11.091   5.724   3.615  1.2299  2.1331 -0.9262
  333DOPC  H15Y45944  11.173   5.664   3.464  0.1391  0.9706 -0.8702
  333DOPC  C31645945  10.984   5.569   3.507  0.1823 -0.6317  0.6496
  333DOPC  H16X45946  10.886   5.602   3.546  0.4789  0.8385  0.2399
  333DOPC  H16Y45947  10.972   5.535   3.402 -1.2838 -0.7574  0.8403
  333DOPC  C31745948  11.026   5.445   3.582  0.1930 -0.4355 -0.4299
  333DOPC  H17X45949  11.074   5.473   3.678 -1.2039 -0.7376  0.3903
  333DOPC  H17Y45950  10.934   5.388   3.605 -1.2994  1.6695 -0.8517
  333DOPC  C31845951  11.117   5.367   3.499 -0.6338  0.1283 -0.2114
  333DOPC  H18X45952  11.205   5.427   3.468  0.2357  0.0114  1.8490
  333DOPC  H18Y45953  11.175   5.285   3.547 -0.3166 -0.5467 -1.7009
  333DOPC  H18Z45954  11.066   5.318   3.413 -2.9978  1.2360  0.4865
  334DOPC     N45955   7.151  11.201   1.780 -0.3122  0.2179 -1.4515
  334DOPC   C1245956   7.252  11.313   1.799  0.7523 -0.4978  0.5565
  334DOPC  H12A45957   7.217  11.404   1.751  1.1144 -0.0429  1.1403
  334DOPC  H12B45958   7.342  11.283   1.748  0.0666 -1.0415 -0.3934
  334DOPC   C1345959   7.125  11.183   1.635  0.1498  0.2366 -0.2214
  334DOPC  H13A45960   7.207  11.134   1.586 -0.8088 -1.7324  0.0422
  334DOPC  H13B45961   7.039  11.120   1.616 -0.2136  0.5961  0.1786
  334DOPC  H13C45962   7.098  11.273   1.583 -1.9497 -0.1529  0.0800
  334DOPC   C1445963   7.021  11.230   1.848  0.0453 -0.1189 -0.1633
  334DOPC  H14A45964   6.946  11.156   1.826 -0.0129 -0.0665 -0.1458
  334DOPC  H14B45965   7.018  11.250   1.954 -2.4396 -1.3406  0.0639
  334DOPC  H14C45966   6.978  11.323   1.812 -1.0250  0.2230  1.8341
  334DOPC   C1545967   7.214  11.076   1.838 -0.5779  0.5640  0.4161
  334DOPC  H15A45968   7.242  11.087   1.942 -0.7204 -3.0853  0.9773
  334DOPC  H15B45969   7.305  11.051   1.786 -0.4675  2.6920 -0.5174
  334DOPC  H15C45970   7.135  11.002   1.844  0.2361 -0.2471  1.8631
  334DOPC   C1145971   7.286  11.352   1.943  0.0761 -0.0462 -0.3788
  334DOPC  H11A45972   7.352  11.441   1.943  2.1992 -1.3347  3.7255
  334DOPC  H11B45973   7.195  11.375   2.003  0.1343 -0.7657 -0.0019
  334DOPC     P45974   7.347  11.224   2.165 -0.1878 -0.0193 -0.2501
  334DOPC   O1345975   7.467  11.147   2.211  0.5555  1.0106 -0.0456
  334DOPC   O1445976   7.210  11.165   2.184  0.2837 -0.6290  0.1774
  334DOPC   O1245977   7.366  11.253   2.010 -0.3365  0.2705  0.0359
  334DOPC   O1145978   7.343  11.370   2.227 -0.3776  0.2893 -1.0199
  334DOPC    C145979   7.266  11.410   2.342  0.4028 -0.8015 -0.1155
  334DOPC    HA45980   7.175  11.346   2.349 -1.9960  2.3340 -0.0918
  334DOPC    HB45981   7.227  11.513   2.327 -1.8298 -1.6868 -0.8418
  334DOPC    C245982   7.350  11.407   2.466  0.2205  0.3572 -0.2759
  334DOPC    HS45983   7.441  11.459   2.427 -0.7992  0.5673 -2.5287
  334DOPC   O2145984   7.386  11.265   2.493  0.0111  0.0794 -0.3904
  334DOPC   C2145985   7.507  11.256   2.556  0.1618 -0.1318  0.3303
  334DOPC   O2245986   7.578  11.351   2.588  1.1134  0.0797  0.0030
  334DOPC   C2245987   7.543  11.105   2.545 -0.3287  0.3970 -0.7945
  334DOPC   H2R45988   7.615  11.102   2.461 -0.2822  2.8375 -0.9130
  334DOPC   H2S45989   7.453  11.050   2.510 -0.5698  1.0513 -1.2074
  334DOPC    C345990   7.306  11.481   2.593  0.0668  0.1477 -0.8534
  334DOPC    HX45991   7.285  11.578   2.543 -0.1284 -0.4576 -1.9770
  334DOPC    HY45992   7.391  11.485   2.665 -1.5766  1.1312  1.1403
  334DOPC   O3145993   7.190  11.428   2.652 -0.1279 -0.6173  0.0324
  334DOPC   C3145994   7.191  11.386   2.781  1.0358  0.1048 -0.2190
  334DOPC   O3245995   7.278  11.419   2.859 -0.0584 -0.4550 -0.3191
  334DOPC   C3245996   7.066  11.305   2.808 -0.3168  0.6926 -0.0818
  334DOPC   H2X45997   6.978  11.372   2.803 -0.2059  0.7905 -0.9744
  334DOPC   H2Y45998   7.039  11.226   2.735 -1.2104 -0.4048  1.3911
  334DOPC   C2345999   7.587  11.054   2.685 -0.5348  0.3971  0.1821
  334DOPC   H3R46000   7.660  11.118   2.737 -0.5738  0.8086 -0.2594
  334DOPC   H3S46001   7.619  10.948   2.679  0.2006  0.6042  0.3416
  334DOPC   C2446002   7.467  11.027   2.785 -0.9997 -0.4088  0.2391
  334DOPC   H4R46003   7.414  10.940   2.741  0.6823 -1.2840 -0.1678
  334DOPC   H4S46004   7.395  11.111   2.780 -0.2708  0.1628 -2.8637
  334DOPC   C2546005   7.503  11.001   2.930 -0.2531  0.1105 -0.0679
  334DOPC   H5R46006   7.572  11.083   2.961  0.8475 -1.7000  2.7488
  334DOPC   H5S46007   7.555  10.903   2.935 -1.8120 -0.7698 -0.3609
  334DOPC   C2646008   7.373  10.993   3.005 -0.3057 -0.6472 -0.1246
  334DOPC   H6R46009   7.301  10.933   2.947  0.2746 -0.2780 -1.2612
  334DOPC   H6S46010   7.334  11.096   3.019 -2.9462 -1.6345  0.3064
  334DOPC   C2746011   7.392  10.934   3.150 -0.2000 -0.2512  0.2900
  334DOPC   H7R46012   7.455  11.002   3.211 -2.4549  0.9288  1.4027
  334DOPC   H7S46013   7.447  10.839   3.131  3.3247  1.8397 -0.9782
  334DOPC   C2846014   7.265  10.906   3.229 -0.1586  0.0832  0.2394
  334DOPC   H8R46015   7.196  10.837   3.177 -0.1917 -0.2672  0.7456
  334DOPC   H8S46016   7.203  10.998   3.230 -0.2337  0.0315  0.9699
  334DOPC   C2946017   7.311  10.850   3.358  0.4204  0.2506 -0.3344
  334DOPC   H9R46018   7.380  10.764   3.363  1.9599  1.4892  3.0747
  334DOPC  C21046019   7.252  10.863   3.478 -0.0692 -0.0727 -0.2322
  334DOPC  H10R46020   7.299  10.836   3.574 -2.7355  0.0359  1.2092
  334DOPC  C21146021   7.125  10.940   3.504  0.0344  0.7259  0.4465
  334DOPC  H11R46022   7.063  10.963   3.415  0.6984 -1.4062 -0.6483
  334DOPC  H11S46023   7.147  11.038   3.550  0.2138  1.3757 -0.9644
  334DOPC  C21246024   7.024  10.860   3.586 -0.5774  0.6120  0.3474
  334DOPC  H12R46025   6.936  10.923   3.610  0.2121  1.6491  0.6064
  334DOPC  H12S46026   7.078  10.823   3.676 -0.7606 -0.3912  0.0550
  334DOPC  C21346027   6.974  10.728   3.520 -0.3245  0.0876  0.6280
  334DOPC  H13R46028   7.057  10.671   3.474 -1.9900 -0.2891 -2.0864
  334DOPC  H13S46029   6.908  10.754   3.435  0.2940  0.2732  0.2006
  334DOPC  C21446030   6.904  10.639   3.619  0.0075  1.0186  0.0472
  334DOPC  H14R46031   6.842  10.573   3.555  1.3980  0.5419 -0.8434
  334DOPC  H14S46032   6.828  10.689   3.683 -0.8658 -0.5795  0.3121
  334DOPC  C21546033   6.994  10.569   3.721  0.4849  0.0625  0.8916
  334DOPC  H15R46034   7.025  10.636   3.804  0.1351 -1.1925  2.0587
  334DOPC  H15S46035   7.083  10.535   3.664  0.1109  2.3631 -1.2360
  334DOPC  C21646036   6.922  10.453   3.792 -0.6179 -0.0554 -0.0308
  334DOPC  H16R46037   6.895  10.375   3.717  2.2534 -0.2058 -1.0331
  334DOPC  H16S46038   6.822  10.486   3.828 -0.6039  0.5968 -0.5665
  334DOPC  C21746039   7.018  10.411   3.907 -0.0780 -0.1935  0.4478
  334DOPC  H17R46040   7.033  10.505   3.965  0.4728  0.6916 -1.0626
  334DOPC  H17S46041   7.109  10.382   3.850 -1.4764 -2.1225 -0.9765
  334DOPC  C21846042   6.956  10.308   3.999  0.1673 -0.4329  0.0179
  334DOPC  H18R46043   7.030  10.293   4.080 -0.1911 -2.2766  0.0480
  334DOPC  H18S46044   6.948  10.207   3.954 -0.9181 -0.0742 -0.6295
  334DOPC  H18T46045   6.869  10.342   4.060 -0.0713 -1.2011  0.1193
  334DOPC   C3346046   7.071  11.235   2.945 -0.1516 -0.0225 -0.2647
  334DOPC   H3X46047   7.132  11.303   3.009  0.5004  1.8876 -2.7616
  334DOPC   H3Y46048   7.117  11.134   2.950  1.1835  0.6273  2.3368
  334DOPC   C3446049   6.918  11.223   2.995 -0.3436  0.3837 -0.3867
  334DOPC   H4X46050   6.878  11.125   2.961 -0.3498 -0.1627  1.1456
  334DOPC   H4Y46051   6.849  11.297   2.948 -1.7616 -0.3366  0.4704
  334DOPC   C3546052   6.907  11.224   3.158  0.2047  0.5417  0.1667
  334DOPC   H5X46053   6.929  11.329   3.187  0.5796  0.7646 -0.8662
  334DOPC   H5Y46054   6.983  11.156   3.202  1.1290 -0.0682 -2.2528
  334DOPC   C3646055   6.770  11.187   3.211 -0.0349 -1.0033  0.0912
  334DOPC   H6X46056   6.712  11.281   3.198  1.1551 -0.4406 -1.4500
  334DOPC   H6Y46057   6.719  11.115   3.144  2.2012 -1.5591 -1.1325
  334DOPC   C3746058   6.766  11.132   3.356  0.4303 -0.1040  0.0727
  334DOPC   H7X46059   6.836  11.046   3.365 -1.2840 -1.4682  1.2570
  334DOPC   H7Y46060   6.802  11.213   3.424 -1.3269 -1.2870  2.5959
  334DOPC   C3846061   6.627  11.091   3.397 -0.4588 -0.1027  0.1424
  334DOPC   H8X46062   6.600  10.994   3.350 -2.8804  0.8340 -0.5682
  334DOPC   H8Y46063   6.560  11.165   3.348  2.2788  1.2300 -1.8071
  334DOPC   C3946064   6.594  11.084   3.545  0.2180 -0.1500  0.1107
  334DOPC   H9X46065   6.684  11.073   3.607 -1.5595 -0.5705  2.7875
  334DOPC  C31046066   6.474  11.088   3.609 -0.6378 -0.2214 -0.3297
  334DOPC  H10X46067   6.478  11.114   3.715  0.8647  1.3555 -0.7293
  334DOPC  C31146068   6.340  11.107   3.546  0.1767 -0.3448  1.0414
  334DOPC  H11X46069   6.273  11.023   3.575 -0.0713 -0.0393  1.3539
  334DOPC  H11Y46070   6.352  11.104   3.436 -0.8298  0.9971  0.8744
  334DOPC  C31246071   6.264  11.237   3.570 -0.2885 -0.0222 -1.0120
  334DOPC  H12X46072   6.173  11.230   3.506 -0.7910 -0.7846 -0.2270
  334DOPC  H12Y46073   6.329  11.321   3.539 -0.8486 -0.0087 -2.2043
  334DOPC  C31346074   6.216  11.256   3.719  0.1533  0.1943 -0.1092
  334DOPC  H13X46075   6.307  11.280   3.777  0.4078 -1.0002  0.0143
  334DOPC  H13Y46076   6.141  11.338   3.716 -0.3211 -0.2481 -1.7289
  334DOPC  C31446077   6.142  11.131   3.773  1.0735 -0.2743 -0.5805
  334DOPC  H14X46078   6.044  11.120   3.722  0.3076  1.7791  0.3440
  334DOPC  H14Y46079   6.212  11.046   3.759  1.9850  0.3061  0.3203
  334DOPC  C31546080   6.126  11.132   3.931  0.1601 -0.1247 -0.4623
  334DOPC  H15X46081   6.062  11.216   3.967  1.4021  0.3504  0.7133
  334DOPC  H15Y46082   6.221  11.152   3.985  0.1436  1.2151 -0.8755
  334DOPC  C31646083   6.069  11.000   3.983 -0.6373 -0.2234  0.0449
  334DOPC  H16X46084   5.975  10.977   3.929  0.1077  0.0244 -1.4108
  334DOPC  H16Y46085   6.139  10.920   3.951  1.2692  0.2915  2.5846
  334DOPC  C31746086   6.047  10.995   4.138  0.4493 -0.0707  0.5730
  334DOPC  H17X46087   5.978  11.076   4.169  0.5696  0.9151 -1.5271
  334DOPC  H17Y46088   5.988  10.905   4.163 -2.3420  0.7371 -2.4625
  334DOPC  C31846089   6.175  11.019   4.224 -0.5202 -0.4197  0.1280
  334DOPC  H18X46090   6.152  10.991   4.329 -0.6456 -2.2746 -0.3541
  334DOPC  H18Y46091   6.261  10.962   4.183 -0.6542  0.1791 -1.0543
  334DOPC  H18Z46092   6.191  11.129   4.225 -1.3803 -0.2578  2.4106
  335DOPC     N46093   5.667   2.146   2.068  0.4125  0.5676  0.0593
  335DOPC   C1246094   5.736   2.095   2.194 -0.6464  0.4637 -0.0727
  335DOPC  H12A46095   5.802   2.173   2.227  1.2261 -0.8745 -0.4772
  335DOPC  H12B46096   5.791   2.003   2.175  0.0108  0.5441  1.3232
  335DOPC   C1346097   5.770   2.227   1.993 -0.4294  0.3054  0.2700
  335DOPC  H13A46098   5.854   2.166   1.966 -1.3899 -1.2072  0.5522
  335DOPC  H13B46099   5.725   2.248   1.896 -0.1871 -1.0681 -0.1544
  335DOPC  H13C46100   5.792   2.317   2.048 -1.6167  1.3184 -0.8332
  335DOPC   C1446101   5.545   2.229   2.099  0.4439 -0.1872  0.5940
  335DOPC  H14A46102   5.478   2.165   2.155  1.3924 -2.1809 -0.4186
  335DOPC  H14B46103   5.575   2.312   2.160 -0.3773  2.1633 -2.0026
  335DOPC  H14C46104   5.486   2.271   2.018 -0.2990  3.7692  2.9377
  335DOPC   C1546105   5.627   2.026   1.982 -0.5186  0.2256  0.7370
  335DOPC  H15A46106   5.574   2.050   1.891  0.7125 -2.0394 -0.6868
  335DOPC  H15B46107   5.574   1.960   2.048  1.0267 -0.3155  1.5034
  335DOPC  H15C46108   5.709   1.970   1.940 -0.7454  0.9577 -0.7393
  335DOPC   C1146109   5.656   2.053   2.316  0.1976  0.3381  0.3277
  335DOPC  H11A46110   5.721   2.037   2.404 -0.6871  2.2586  1.4005
  335DOPC  H11B46111   5.587   2.133   2.351 -0.4439  0.6305 -1.5172
  335DOPC     P46112   5.625   1.795   2.287 -0.2086  0.0508  0.3508
  335DOPC   O1346113   5.764   1.791   2.240 -0.4784  0.1485  0.0753
  335DOPC   O1446114   5.531   1.710   2.206 -0.6858 -0.0340 -0.7475
  335DOPC   O1246115   5.577   1.944   2.283  0.1501  0.0152  0.3520
  335DOPC   O1146116   5.611   1.770   2.439  0.7185  0.4729 -0.6886
  335DOPC    C146117   5.482   1.746   2.502  0.5842 -0.1613 -0.5588
  335DOPC    HA46118   5.496   1.685   2.593  1.8949 -0.9547 -1.2537
  335DOPC    HB46119   5.414   1.690   2.434  0.3648  1.1101 -1.4204
  335DOPC    C246120   5.418   1.878   2.554  0.2099 -0.5846 -0.4826
  335DOPC    HS46121   5.407   1.938   2.461 -0.5466  1.9246  1.1386
  335DOPC   O2146122   5.517   1.931   2.649 -0.6506  0.3620 -0.0994
  335DOPC   C2146123   5.525   2.068   2.656 -0.3057  0.1273 -0.2199
  335DOPC   O2246124   5.465   2.144   2.583 -0.2763 -0.3344  0.7085
  335DOPC   C2246125   5.620   2.121   2.762 -0.3324 -0.5473 -0.1439
  335DOPC   H2R46126   5.725   2.085   2.756 -0.8995 -2.5382  1.0719
  335DOPC   H2S46127   5.588   2.073   2.856  3.3288 -4.0001 -0.3825
  335DOPC    C346128   5.283   1.850   2.621  0.6440  0.2448  0.0624
  335DOPC    HX46129   5.218   1.826   2.534 -1.5078  2.4375  0.9328
  335DOPC    HY46130   5.245   1.941   2.673  1.0026 -1.5822  3.8698
  335DOPC   O3146131   5.272   1.735   2.716  0.2055  0.1019 -0.2793
  335DOPC   C3146132   5.151   1.698   2.721 -0.3278 -0.2916  0.1927
  335DOPC   O3246133   5.055   1.756   2.677  0.2309 -0.7900 -0.9477
  335DOPC   C3246134   5.145   1.566   2.797  0.1051 -0.1986  0.3326
  335DOPC   H2X46135   5.232   1.497   2.783 -1.2558 -1.5599 -2.1639
  335DOPC   H2Y46136   5.143   1.603   2.901 -0.6836  1.2348 -0.1693
  335DOPC   C2346137   5.618   2.274   2.777 -0.0637  0.1732 -0.4740
  335DOPC   H3R46138   5.623   2.320   2.676  1.4317 -1.0930 -1.0205
  335DOPC   H3S46139   5.709   2.308   2.830 -1.0948 -1.2360  2.4509
  335DOPC   C2446140   5.491   2.317   2.842  0.3544 -0.9359  0.2712
  335DOPC   H4R46141   5.476   2.275   2.943 -0.7602  0.2383  0.6148
  335DOPC   H4S46142   5.407   2.294   2.773 -0.1735  1.5332  0.0238
  335DOPC   C2546143   5.503   2.470   2.855 -0.3072 -0.1744  0.0548
  335DOPC   H5R46144   5.508   2.520   2.756 -2.8136  0.3680  0.1463
  335DOPC   H5S46145   5.591   2.491   2.920  0.1400  1.4463 -1.0100
  335DOPC   C2646146   5.368   2.521   2.913  0.4648 -0.2875 -0.3841
  335DOPC   H6R46147   5.285   2.450   2.891  1.0673 -1.1344 -0.0083
  335DOPC   H6S46148   5.341   2.627   2.896 -0.5395 -0.6365 -1.1084
  335DOPC   C2746149   5.377   2.498   3.070 -0.2716  0.2099 -0.1336
  335DOPC   H7R46150   5.452   2.563   3.119 -2.0864  1.0610  1.6639
  335DOPC   H7S46151   5.403   2.392   3.092 -0.7369  0.5274  2.2581
  335DOPC   C2846152   5.238   2.524   3.131 -0.4017  0.2115 -0.8995
  335DOPC   H8R46153   5.168   2.443   3.102  0.0479  0.6241 -3.3811
  335DOPC   H8S46154   5.208   2.611   3.069 -0.2935 -0.3841 -1.8078
  335DOPC   C2946155   5.253   2.542   3.283  0.6879 -0.0661 -0.1659
  335DOPC   H9R46156   5.263   2.649   3.309  3.1914 -0.6817  1.6929
  335DOPC  C21046157   5.238   2.448   3.379  0.5642  0.5636 -0.0906
  335DOPC  H10R46158   5.249   2.476   3.484 -0.5027  0.5499  0.0431
  335DOPC  C21146159   5.208   2.303   3.359 -0.1623  0.8215 -0.0826
  335DOPC  H11R46160   5.260   2.251   3.441 -0.8800  0.5549  0.2120
  335DOPC  H11S46161   5.245   2.268   3.260  2.9309  3.5022 -0.0455
  335DOPC  C21246162   5.059   2.269   3.395  0.2901  0.1363 -0.8291
  335DOPC  H12R46163   5.027   2.308   3.494  0.8618 -3.0232  0.7301
  335DOPC  H12S46164   5.053   2.158   3.398 -2.3854  0.2285 -0.4529
  335DOPC  C21346165   4.966   2.303   3.289  0.9609  0.9569 -0.1789
  335DOPC  H13R46166   4.979   2.407   3.252  1.8293  0.4879 -1.2433
  335DOPC  H13S46167   4.861   2.285   3.320 -0.0186  2.3978 -2.3460
  335DOPC  C21446168   4.979   2.209   3.161 -0.2694  0.0365 -0.1759
  335DOPC  H14R46169   4.947   2.102   3.171  0.0306 -0.0677 -0.3193
  335DOPC  H14S46170   5.079   2.196   3.116 -1.4553 -0.3347 -2.8752
  335DOPC  C21546171   4.893   2.262   3.046  0.7415 -0.4390 -0.1924
  335DOPC  H15R46172   4.907   2.371   3.027 -1.5481 -0.1584 -0.5357
  335DOPC  H15S46173   4.786   2.252   3.071  1.6695 -0.7215  4.6023
  335DOPC  C21646174   4.918   2.202   2.906 -0.2585  0.1999  0.0145
  335DOPC  H16R46175   5.025   2.214   2.877 -0.3622  2.0437  0.2995
  335DOPC  H16S46176   4.866   2.258   2.826 -2.2241 -2.6204 -0.8429
  335DOPC  C21746177   4.878   2.057   2.876  0.0379 -0.5307 -0.2480
  335DOPC  H17R46178   4.946   1.992   2.934 -0.1271 -0.5523 -0.0795
  335DOPC  H17S46179   4.896   2.045   2.767 -1.7928  0.7972 -0.7483
  335DOPC  C21846180   4.736   2.015   2.917 -0.1585  0.5646 -0.3024
  335DOPC  H18R46181   4.719   2.041   3.024 -0.7493 -0.4529 -0.1441
  335DOPC  H18S46182   4.729   1.907   2.893 -1.1654  0.5502  0.0147
  335DOPC  H18T46183   4.662   2.066   2.852 -0.6643 -1.0795 -1.0607
  335DOPC   C3346184   5.008   1.488   2.770  0.0640 -0.5355 -0.4696
  335DOPC   H3X46185   5.027   1.384   2.806 -0.8124  0.1829  2.3099
  335DOPC   H3Y46186   4.990   1.481   2.660 -0.4437  1.0453 -0.5092
  335DOPC   C3446187   4.892   1.544   2.853  0.4077  0.7076  0.0290
  335DOPC   H4X46188   4.801   1.530   2.791  0.1600  1.7608  0.1283
  335DOPC   H4Y46189   4.906   1.655   2.854  1.1830  0.6496 -1.6939
  335DOPC   C3546190   4.885   1.506   3.001  0.1867 -0.5190 -0.2576
  335DOPC   H5X46191   4.978   1.461   3.044 -0.1827 -0.1875  0.9212
  335DOPC   H5Y46192   4.813   1.424   3.020 -0.2220  0.1042  0.9940
  335DOPC   C3646193   4.851   1.635   3.082 -0.5652  0.4080 -0.0323
  335DOPC   H6X46194   4.936   1.706   3.070  0.6637 -0.1826  3.7406
  335DOPC   H6Y46195   4.751   1.672   3.052 -1.3701 -1.6942 -0.1402
  335DOPC   C3746196   4.840   1.607   3.230 -0.5405 -0.1175  0.2550
  335DOPC   H7X46197   4.940   1.575   3.266  0.1262  2.0305  0.4711
  335DOPC   H7Y46198   4.819   1.705   3.278 -1.9191 -0.2229 -0.0681
  335DOPC   C3846199   4.729   1.506   3.267  0.6051  0.1623 -1.1906
  335DOPC   H8X46200   4.758   1.479   3.371 -1.3295  3.3198  0.3314
  335DOPC   H8Y46201   4.737   1.412   3.209  2.6184 -0.7720  0.4507
  335DOPC   C3946202   4.595   1.565   3.279  0.7564  0.8201 -0.1753
  335DOPC   H9X46203   4.581   1.655   3.217 -2.5361  0.1898 -0.4930
  335DOPC  C31046204   4.494   1.528   3.359  1.0145 -0.1247  0.5888
  335DOPC  H10X46205   4.403   1.590   3.368  0.5612 -0.4182 -1.4839
  335DOPC  C31146206   4.501   1.422   3.460 -0.6455  0.1068  0.3138
  335DOPC  H11X46207   4.558   1.335   3.420 -2.3794 -0.1954 -1.6680
  335DOPC  H11Y46208   4.400   1.381   3.482 -0.8616 -0.0300 -0.8599
  335DOPC  C31246209   4.552   1.471   3.599  0.9993  0.8959 -0.2450
  335DOPC  H12X46210   4.489   1.559   3.626  0.5674  1.1166 -1.8049
  335DOPC  H12Y46211   4.657   1.508   3.600  0.8231  1.4242  1.5488
  335DOPC  C31346212   4.542   1.357   3.705  0.2402  0.1145  0.3422
  335DOPC  H13X46213   4.435   1.325   3.701 -0.5525  2.5679  0.4420
  335DOPC  H13Y46214   4.611   1.276   3.671  1.8404  1.3924  0.4562
  335DOPC  C31446215   4.587   1.411   3.841 -0.0395 -0.2424 -0.3687
  335DOPC  H14X46216   4.619   1.516   3.828  2.5001 -0.9950 -0.7232
  335DOPC  H14Y46217   4.494   1.420   3.903 -1.2020 -0.6179 -1.9858
  335DOPC  C31546218   4.690   1.323   3.910 -0.2449 -0.6816  0.5203
  335DOPC  H15X46219   4.765   1.310   3.830 -3.1735 -0.3504 -2.5314
  335DOPC  H15Y46220   4.651   1.221   3.934 -0.8766 -0.5062  0.2671
  335DOPC  C31646221   4.736   1.396   4.035 -0.4243  0.2969 -0.1192
  335DOPC  H16X46222   4.737   1.505   4.015  2.9129  0.2153 -0.9370
  335DOPC  H16Y46223   4.657   1.378   4.112  0.6966  0.8730  1.2105
  335DOPC  C31746224   4.869   1.356   4.089  0.6439  0.2640 -0.0631
  335DOPC  H17X46225   4.955   1.394   4.030  0.0531  0.0473 -1.0799
  335DOPC  H17Y46226   4.883   1.394   4.193  1.9776 -1.3473  0.3748
  335DOPC  C31846227   4.879   1.202   4.084  0.3108  0.3573  0.0057
  335DOPC  H18X46228   4.784   1.157   4.120  0.2936  0.9157  0.6837
  335DOPC  H18Y46229   4.887   1.174   3.977  0.8246 -0.2700  0.1996
  335DOPC  H18Z46230   4.968   1.167   4.141 -0.2676  0.9621  1.3050
  336DOPC     N46231   7.271   2.742   2.101  0.2866  0.0145  0.4576
  336DOPC   C1246232   7.289   2.889   2.145 -0.3414 -0.1037  0.7791
  336DOPC  H12A46233   7.393   2.916   2.152 -0.2310  0.3136 -1.7336
  336DOPC  H12B46234   7.232   2.891   2.237  0.0408 -2.3966  1.1230
  336DOPC   C1346235   7.128   2.700   2.091  0.4561  0.5599  0.6083
  336DOPC  H13A46236   7.119   2.593   2.094 -1.3006  0.6565 -0.3058
  336DOPC  H13B46237   7.075   2.738   2.177  0.1127  0.1531  0.5755
  336DOPC  H13C46238   7.079   2.731   1.999 -0.1825  1.2022  1.1544
  336DOPC   C1446239   7.330   2.654   2.213 -0.0905  0.0247 -0.4672
  336DOPC  H14A46240   7.436   2.670   2.224 -0.2666 -0.0758  1.9491
  336DOPC  H14B46241   7.283   2.668   2.309  1.1454  0.4424  0.0972
  336DOPC  H14C46242   7.312   2.549   2.193 -0.7755  0.1657 -0.6051
  336DOPC   C1546243   7.343   2.711   1.974  0.4744  0.2189 -0.1398
  336DOPC  H15A46244   7.444   2.747   1.984  1.4791 -2.3899 -0.0852
  336DOPC  H15B46245   7.291   2.754   1.890  2.1897  1.3843 -0.6694
  336DOPC  H15C46246   7.333   2.604   1.963 -1.5300  0.1305  1.8723
  336DOPC   C1146247   7.230   2.996   2.039 -0.5136 -0.5329 -0.4324
  336DOPC  H11A46248   7.123   2.982   2.010  0.1556 -0.1875 -3.4198
  336DOPC  H11B46249   7.236   3.102   2.073  0.9399  0.0181 -2.2138
  336DOPC     P46250   7.456   3.060   1.911 -0.3279  0.1060  0.6835
  336DOPC   O1346251   7.446   3.201   1.864 -0.4020 -0.0405  0.0238
  336DOPC   O1446252   7.539   2.971   1.824 -0.3733 -0.0201 -0.0073
  336DOPC   O1246253   7.315   2.990   1.921  0.4827 -0.0078 -0.1003
  336DOPC   O1146254   7.514   3.054   2.063  0.1740 -0.4801  0.1820
  336DOPC    C146255   7.651   3.069   2.084  0.2173 -0.1401 -0.1433
  336DOPC    HA46256   7.678   3.176   2.069 -2.5091  0.4666 -1.2775
  336DOPC    HB46257   7.698   2.996   2.015 -0.5017  0.1432 -0.9454
  336DOPC    C246258   7.681   3.017   2.227  0.1939  0.2090 -0.3060
  336DOPC    HS46259   7.641   2.914   2.239  1.4563 -0.2540  0.0340
  336DOPC   O2146260   7.617   3.101   2.321 -0.1427  0.7027 -0.1980
  336DOPC   C2146261   7.599   3.049   2.444  0.2036 -0.1450 -0.2266
  336DOPC   O2246262   7.591   2.931   2.466 -0.1027 -0.0512  0.2652
  336DOPC   C2246263   7.581   3.162   2.544 -0.5402 -0.3365  0.4411
  336DOPC   H2R46264   7.482   3.209   2.525 -1.6336 -1.6356  2.5565
  336DOPC   H2S46265   7.665   3.234   2.532 -0.5114 -0.0603  2.0550
  336DOPC    C346266   7.837   3.011   2.256  0.3653 -0.1806  0.1308
  336DOPC    HX46267   7.869   3.117   2.266  0.5191  0.2858 -3.6098
  336DOPC    HY46268   7.895   2.969   2.171 -0.1939 -2.2159  0.7013
  336DOPC   O3146269   7.868   2.938   2.379  0.1033  0.1883  0.1075
  336DOPC   C3146270   7.883   2.806   2.363  1.7080 -0.1773  0.0088
  336DOPC   O3246271   7.868   2.749   2.258 -0.1280 -0.5080  0.2343
  336DOPC   C3246272   7.897   2.744   2.504 -0.4179 -0.7805  0.7511
  336DOPC   H2X46273   7.872   2.820   2.582  1.0420  0.0802  0.4059
  336DOPC   H2Y46274   7.831   2.656   2.517  0.2513 -1.3272  0.4769
  336DOPC   C2346275   7.600   3.118   2.692 -0.6136  0.7370 -0.8543
  336DOPC   H3R46276   7.686   3.050   2.713  0.4010  1.5921 -2.0844
  336DOPC   H3S46277   7.508   3.069   2.731 -0.0190 -0.0312 -0.3786
  336DOPC   C2446278   7.631   3.234   2.793  0.0882  0.1734  0.2854
  336DOPC   H4R46279   7.726   3.282   2.761  1.3162 -3.3765 -1.9445
  336DOPC   H4S46280   7.645   3.194   2.896  1.7074  2.0564  0.8656
  336DOPC   C2546281   7.515   3.334   2.794  0.4530 -0.7855 -0.0488
  336DOPC   H5R46282   7.509   3.387   2.696 -3.7702 -0.7098  0.0499
  336DOPC   H5S46283   7.545   3.403   2.876 -1.3362 -2.5811  2.2388
  336DOPC   C2646284   7.369   3.299   2.835 -0.3738  0.2994  0.4173
  336DOPC   H6R46285   7.343   3.216   2.765  1.4001  1.2127 -1.4373
  336DOPC   H6S46286   7.302   3.382   2.805  1.4489  1.8657  0.5497
  336DOPC   C2746287   7.356   3.240   2.972  0.6048  0.2451 -0.2159
  336DOPC   H7R46288   7.402   3.311   3.044  0.6686 -1.2353  1.2440
  336DOPC   H7S46289   7.412   3.144   2.975  0.5595  0.2247 -0.0122
  336DOPC   C2846290   7.217   3.212   3.017 -0.8313  0.4592  0.0100
  336DOPC   H8R46291   7.225   3.152   3.110 -0.4609 -0.3225 -0.5141
  336DOPC   H8S46292   7.156   3.150   2.948  0.8354 -0.2197 -0.9161
  336DOPC   C2946293   7.157   3.344   3.042  0.5521 -0.5327  0.0454
  336DOPC   H9R46294   7.134   3.391   2.945 -1.2938 -0.8917  0.2660
  336DOPC  C21046295   7.139   3.404   3.162  0.2329  0.0233  0.1626
  336DOPC  H10R46296   7.073   3.492   3.166  1.4292  0.9900  4.8177
  336DOPC  C21146297   7.178   3.358   3.301 -0.0285 -0.3796 -0.3566
  336DOPC  H11R46298   7.265   3.418   3.335  0.4791 -0.6743 -1.0955
  336DOPC  H11S46299   7.223   3.256   3.298  1.0281  0.1054 -2.4918
  336DOPC  C21246300   7.060   3.372   3.399  0.6525  0.4302 -0.0491
  336DOPC  H12R46301   6.976   3.307   3.368  0.2949  0.3497  1.0503
  336DOPC  H12S46302   7.017   3.474   3.407 -1.1785 -0.1481 -1.6393
  336DOPC  C21346303   7.090   3.313   3.540 -0.7282  0.3210  0.0857
  336DOPC  H13R46304   7.190   3.353   3.568 -0.1058 -0.9876 -0.1800
  336DOPC  H13S46305   7.091   3.202   3.531 -0.2041  0.3125  0.2165
  336DOPC  C21446306   6.995   3.346   3.652  0.1583 -0.3260 -0.0323
  336DOPC  H14R46307   6.894   3.328   3.609 -0.2478 -0.2942  0.8910
  336DOPC  H14S46308   6.999   3.453   3.683  0.5289  0.0674 -1.3679
  336DOPC  C21546309   6.997   3.244   3.777 -0.4056 -0.4076  0.2444
  336DOPC  H15R46310   7.100   3.225   3.815 -1.2877 -1.1256  2.4183
  336DOPC  H15S46311   6.962   3.147   3.736  0.8842 -0.6786 -0.2664
  336DOPC  C21646312   6.914   3.296   3.897 -0.4151 -0.1172  0.6328
  336DOPC  H16R46313   6.813   3.324   3.861  0.5432  1.0747 -1.2783
  336DOPC  H16S46314   6.968   3.389   3.929 -2.6211  1.5039 -0.1175
  336DOPC  C21746315   6.896   3.196   4.015  0.0541 -0.5007  0.0715
  336DOPC  H17R46316   6.866   3.241   4.112  1.0863 -0.4105  0.3597
  336DOPC  H17S46317   6.982   3.127   4.032 -0.0307 -0.6465 -0.0796
  336DOPC  C21846318   6.762   3.117   3.988  0.2715  0.1121  0.4874
  336DOPC  H18R46319   6.750   3.041   4.069 -2.2845 -0.7675 -0.6125
  336DOPC  H18S46320   6.787   3.067   3.892 -0.0240  1.0425 -0.0843
  336DOPC  H18T46321   6.675   3.181   3.966  0.1410 -0.9511 -2.5464
  336DOPC   C3346322   8.045   2.712   2.533  0.0075 -0.4993 -0.0149
  336DOPC   H3X46323   8.083   2.644   2.454 -0.6672 -0.8791 -0.0152
  336DOPC   H3Y46324   8.046   2.651   2.627 -0.4841 -0.9548 -0.3002
  336DOPC   C3446325   8.142   2.834   2.527 -0.0288  0.1199  0.1323
  336DOPC   H4X46326   8.116   2.902   2.442  1.9092 -1.1212 -1.5233
  336DOPC   H4Y46327   8.249   2.815   2.506  0.3801  0.8220  1.4722
  336DOPC   C3546328   8.124   2.929   2.649  0.0378  0.0424 -1.0699
  336DOPC   H5X46329   8.024   2.975   2.656 -0.3630 -1.0037  0.8292
  336DOPC   H5Y46330   8.200   3.008   2.629 -0.2869  1.4517  2.6107
  336DOPC   C3646331   8.165   2.877   2.790  0.4753 -0.0235  0.1142
  336DOPC   H6X46332   8.081   2.812   2.824 -2.0164  3.8551  2.0029
  336DOPC   H6Y46333   8.255   2.814   2.774  1.1537  1.0783 -0.5410
  336DOPC   C3746334   8.193   2.982   2.901  0.3131  0.1105  0.0711
  336DOPC   H7X46335   8.284   3.041   2.878  0.8624 -0.7679 -0.0603
  336DOPC   H7Y46336   8.113   3.058   2.918  0.2179  0.1946 -0.7385
  336DOPC   C3846337   8.246   2.925   3.038 -0.2188 -0.0996 -0.1312
  336DOPC   H8X46338   8.300   3.004   3.094  0.4697  0.6047 -1.7182
  336DOPC   H8Y46339   8.324   2.849   3.016  1.7732  1.1459  2.0812
  336DOPC   C3946340   8.138   2.856   3.122  0.2247 -0.3945 -0.2867
  336DOPC   H9X46341   8.052   2.825   3.060 -1.0015  2.4648 -0.1737
  336DOPC  C31046342   8.123   2.855   3.253 -1.2872  0.3576 -0.3090
  336DOPC  H10X46343   8.038   2.812   3.307 -0.5405 -2.5842 -1.3187
  336DOPC  C31146344   8.218   2.927   3.345  0.0780  0.3139 -0.4756
  336DOPC  H11X46345   8.278   3.012   3.306 -1.9137  1.8355 -0.3429
  336DOPC  H11Y46346   8.296   2.852   3.373 -0.6722  0.4058  2.1123
  336DOPC  C31246347   8.165   2.968   3.480  0.0848  0.0497 -0.7743
  336DOPC  H12X46348   8.092   2.892   3.515  0.3220 -0.9260 -2.3603
  336DOPC  H12Y46349   8.108   3.059   3.453  0.1263 -0.3939 -2.4477
  336DOPC  C31346350   8.266   2.986   3.597  0.4744  0.7824  0.0208
  336DOPC  H13X46351   8.313   2.886   3.605 -0.8692 -0.0301 -1.5418
  336DOPC  H13Y46352   8.352   3.052   3.573  1.8811 -0.8439  0.3945
  336DOPC  C31446353   8.195   3.014   3.725  1.3007 -0.0570 -0.2748
  336DOPC  H14X46354   8.130   3.101   3.700 -0.5497 -0.6302  2.0708
  336DOPC  H14Y46355   8.125   2.936   3.763  0.0146  0.1345 -2.1042
  336DOPC  C31546356   8.291   3.051   3.837  0.4030 -0.4686  0.0768
  336DOPC  H15X46357   8.353   3.128   3.788  0.7048 -0.3105  0.6999
  336DOPC  H15Y46358   8.350   2.961   3.864 -2.7102 -2.8324 -0.3448
  336DOPC  C31646359   8.233   3.115   3.967 -0.4996 -0.5854 -0.1469
  336DOPC  H16X46360   8.168   3.044   4.023 -0.9156  1.5104  2.1975
  336DOPC  H16Y46361   8.322   3.142   4.028  0.0218 -1.0628 -0.6905
  336DOPC  C31746362   8.140   3.234   3.942  0.0173 -0.1530 -0.6562
  336DOPC  H17X46363   8.167   3.289   3.849 -0.8642  1.7476  0.1776
  336DOPC  H17Y46364   8.035   3.203   3.927 -0.6029  0.4433  2.0676
  336DOPC  C31846365   8.146   3.335   4.059 -0.0343  0.3018  0.4544
  336DOPC  H18X46366   8.245   3.385   4.061  1.4967 -2.4508 -0.4349
  336DOPC  H18Y46367   8.070   3.414   4.039 -0.4550  0.2386  1.7364
  336DOPC  H18Z46368   8.120   3.288   4.156  0.6112  1.0724  1.0066
  337DOPC     N46369   1.593   8.387   1.152  0.8299 -0.6767 -0.4985
  337DOPC   C1246370   1.543   8.480   1.264  0.2880  0.2752 -0.5436
  337DOPC  H12A46371   1.616   8.498   1.342 -1.7206  0.7589  1.3045
  337DOPC  H12B46372   1.472   8.418   1.316  0.0257 -1.8641 -3.2451
  337DOPC   C1346373   1.482   8.361   1.056 -0.8054  0.1759 -0.0198
  337DOPC  H13A46374   1.428   8.447   1.017 -0.1679  0.4722 -0.2760
  337DOPC  H13B46375   1.516   8.306   0.969 -1.1926  0.7032 -0.5221
  337DOPC  H13C46376   1.411   8.299   1.107  0.3055 -0.9231  0.2266
  337DOPC   C1446377   1.641   8.261   1.199  0.2972 -0.2270 -0.5178
  337DOPC  H14A46378   1.710   8.267   1.282  2.1039 -2.5028 -1.7499
  337DOPC  H14B46379   1.560   8.199   1.234  0.5033 -0.6411 -0.7724
  337DOPC  H14C46380   1.688   8.203   1.121 -0.2592 -1.8398  0.3014
  337DOPC   C1546381   1.694   8.463   1.073 -0.3027 -0.9831  0.8579
  337DOPC  H15A46382   1.747   8.398   1.005  0.3496  0.1538  0.2666
  337DOPC  H15B46383   1.771   8.506   1.136 -0.7130  0.9504  0.1139
  337DOPC  H15C46384   1.640   8.530   1.008  1.7717 -1.9236 -2.0632
  337DOPC   C1146385   1.490   8.620   1.215 -0.0252  0.3230 -0.6607
  337DOPC  H11A46386   1.568   8.661   1.148  0.5037 -1.7147 -1.3648
  337DOPC  H11B46387   1.397   8.598   1.158  0.6967 -1.0908 -1.3569
  337DOPC     P46388   1.340   8.672   1.426 -0.1069  0.2513  0.0311
  337DOPC   O1346389   1.218   8.614   1.363 -0.3909  0.0634  0.0030
  337DOPC   O1446390   1.326   8.799   1.507 -0.1707 -0.0452 -0.1919
  337DOPC   O1246391   1.463   8.706   1.332 -0.3710  0.5097 -0.0047
  337DOPC   O1146392   1.408   8.552   1.506  0.4347  0.4047  0.1816
  337DOPC    C146393   1.494   8.577   1.621 -0.1879  0.6474  0.2707
  337DOPC    HA46394   1.558   8.666   1.602  2.1960 -1.1106 -0.3308
  337DOPC    HB46395   1.563   8.491   1.628 -0.0098  0.6920 -0.8284
  337DOPC    C246396   1.422   8.593   1.758 -0.0166 -0.4726 -0.2396
  337DOPC    HS46397   1.364   8.687   1.767  1.1496  0.4233 -1.5632
  337DOPC   O2146398   1.530   8.610   1.856 -1.1068 -0.4365  0.2571
  337DOPC   C2146399   1.482   8.651   1.982  0.7223 -0.3878 -0.1530
  337DOPC   O2246400   1.376   8.711   1.996  0.6724 -0.1888 -0.4049
  337DOPC   C2246401   1.564   8.606   2.097 -0.0045  0.1598 -0.5925
  337DOPC   H2R46402   1.672   8.633   2.089  0.0128  0.5927  0.8050
  337DOPC   H2S46403   1.544   8.496   2.103 -3.6637  0.6670 -1.2568
  337DOPC    C346404   1.339   8.471   1.782  0.2525  0.3441  0.3799
  337DOPC    HX46405   1.404   8.381   1.791 -0.4039 -0.2567 -0.6517
  337DOPC    HY46406   1.282   8.455   1.688 -0.3651 -0.2185  0.8408
  337DOPC   O3146407   1.247   8.480   1.890  0.4233  0.6646  0.0663
  337DOPC   C3146408   1.129   8.540   1.872 -0.6704  0.0760 -0.2346
  337DOPC   O3246409   1.109   8.618   1.780 -0.3765  0.4957  0.6217
  337DOPC   C3246410   1.041   8.511   1.995 -0.4588  0.0063 -0.5537
  337DOPC   H2X46411   0.933   8.524   1.969 -0.2375 -1.7034 -2.6458
  337DOPC   H2Y46412   1.056   8.405   2.023 -0.2063  0.3814  0.7700
  337DOPC   C2346413   1.512   8.691   2.224  0.5330  0.1956  0.4433
  337DOPC   H3R46414   1.535   8.799   2.209 -0.1062  0.2320 -0.3322
  337DOPC   H3S46415   1.402   8.685   2.236  0.4480  1.7574  0.6632
  337DOPC   C2446416   1.561   8.641   2.359  0.2342  0.0332 -0.5243
  337DOPC   H4R46417   1.671   8.654   2.359  0.1738  0.8764  1.1294
  337DOPC   H4S46418   1.542   8.533   2.372 -0.8107  0.2877  0.2744
  337DOPC   C2546419   1.520   8.728   2.478 -0.1529 -0.4697 -0.0792
  337DOPC   H5R46420   1.410   8.741   2.483  0.1596  3.2389  0.1107
  337DOPC   H5S46421   1.540   8.830   2.438 -0.3160 -0.4075 -0.0051
  337DOPC   C2646422   1.602   8.694   2.606 -0.3879 -0.5021 -0.8675
  337DOPC   H6R46423   1.708   8.672   2.580  0.2139 -1.4977  1.9969
  337DOPC   H6S46424   1.551   8.609   2.658 -0.4566  1.6911  3.0664
  337DOPC   C2746425   1.609   8.816   2.705  0.0762  0.8167  0.1756
  337DOPC   H7R46426   1.683   8.888   2.665 -0.2596  1.5290  0.8104
  337DOPC   H7S46427   1.654   8.778   2.799  1.4316  0.8102 -0.4562
  337DOPC   C2846428   1.472   8.879   2.736  0.1939  0.4190 -0.4135
  337DOPC   H8R46429   1.396   8.799   2.745 -0.4382  1.1334  0.9452
  337DOPC   H8S46430   1.456   8.936   2.642  1.8162 -0.7550 -1.4554
  337DOPC   C2946431   1.475   8.957   2.864  0.1407 -0.0200  0.2522
  337DOPC   H9R46432   1.487   9.065   2.846  1.6262 -0.2533 -0.2921
  337DOPC  C21046433   1.440   8.911   2.986  0.2841  0.3778  0.6094
  337DOPC  H10R46434   1.465   8.962   3.080  0.5965 -1.0368  1.3258
  337DOPC  C21146435   1.392   8.773   3.004 -0.3107 -0.4516  0.0873
  337DOPC  H11R46436   1.451   8.707   2.938 -1.0161  0.1917 -1.2259
  337DOPC  H11S46437   1.289   8.764   2.962  0.2666 -1.4745 -1.1632
  337DOPC  C21246438   1.381   8.713   3.152 -0.7184  0.2099  0.9095
  337DOPC  H12R46439   1.483   8.701   3.195 -0.5698  2.0463  1.1507
  337DOPC  H12S46440   1.341   8.609   3.151  0.9675 -0.4843  0.9056
  337DOPC  C21346441   1.294   8.786   3.246 -0.2979 -0.2182 -0.7894
  337DOPC  H13R46442   1.192   8.774   3.203 -0.1824  1.0634 -1.4516
  337DOPC  H13S46443   1.335   8.889   3.243 -0.2725 -0.2280 -0.7985
  337DOPC  C21446444   1.307   8.722   3.387  0.0792  0.3430  0.1529
  337DOPC  H14R46445   1.414   8.720   3.417  0.1888  2.2170  0.0048
  337DOPC  H14S46446   1.263   8.620   3.379  0.5453  0.1437  0.0753
  337DOPC  C21546447   1.217   8.789   3.494 -0.1133  0.0168  0.0627
  337DOPC  H15R46448   1.111   8.767   3.471 -0.1946  0.7588 -0.3018
  337DOPC  H15S46449   1.242   8.897   3.485 -1.0841  0.1002 -2.2413
  337DOPC  C21646450   1.253   8.747   3.641  0.2959 -1.0126  0.7501
  337DOPC  H16R46451   1.187   8.815   3.698  0.4640  1.2490 -1.5509
  337DOPC  H16S46452   1.361   8.772   3.651  0.5574 -1.7676 -0.0229
  337DOPC  C21746453   1.221   8.602   3.668  0.3577 -0.7820  0.7248
  337DOPC  H17R46454   1.305   8.538   3.633 -1.1497 -1.3511 -2.0685
  337DOPC  H17S46455   1.131   8.583   3.606 -0.7487  0.4227  1.9032
  337DOPC  C21846456   1.197   8.574   3.809 -0.1771  0.1461 -0.2452
  337DOPC  H18R46457   1.286   8.604   3.869 -0.0428  0.2466 -0.4940
  337DOPC  H18S46458   1.188   8.464   3.826 -3.0418  0.2908 -0.3378
  337DOPC  H18T46459   1.104   8.620   3.848 -0.3861 -0.9800  0.6577
  337DOPC   C3346460   1.080   8.597   2.119 -0.0267  0.7018 -0.2677
  337DOPC   H3X46461   1.075   8.704   2.090 -0.7854  0.3866 -1.3455
  337DOPC   H3Y46462   1.183   8.563   2.142 -0.8472 -1.8716 -0.1220
  337DOPC   C3446463   0.992   8.581   2.241 -0.5505  0.0380 -0.0575
  337DOPC   H4X46464   0.990   8.473   2.270  2.3879 -0.3742 -1.0427
  337DOPC   H4Y46465   0.890   8.618   2.217 -0.1786  2.3267  1.5977
  337DOPC   C3546466   1.040   8.671   2.359 -0.1445 -0.6980 -0.4702
  337DOPC   H5X46467   1.006   8.776   2.344 -0.1850 -0.5907  0.3315
  337DOPC   H5Y46468   1.151   8.672   2.356 -0.1074 -2.6002 -1.5479
  337DOPC   C3646469   0.998   8.626   2.504  0.0991 -0.4950 -0.0746
  337DOPC   H6X46470   0.887   8.632   2.508  0.0877  1.6740 -1.4000
  337DOPC   H6Y46471   1.028   8.520   2.511  0.1294 -0.5170 -0.4902
  337DOPC   C3746472   1.059   8.708   2.615 -0.2603 -0.4321 -0.1376
  337DOPC   H7X46473   1.170   8.701   2.617 -0.1234  0.2351 -2.2805
  337DOPC   H7Y46474   1.046   8.817   2.595  0.2950 -0.6187 -1.6862
  337DOPC   C3846475   0.991   8.684   2.748  0.9281 -0.0170 -0.5443
  337DOPC   H8X46476   1.044   8.593   2.785 -0.4932 -0.5833  0.1840
  337DOPC   H8Y46477   0.882   8.672   2.731  0.6433 -1.7995  1.9682
  337DOPC   C3946478   1.007   8.794   2.850  0.7646 -0.1731 -0.4562
  337DOPC   H9X46479   1.088   8.859   2.814 -1.0829  0.0556 -4.9976
  337DOPC  C31046480   0.926   8.823   2.960  0.2573  0.2223  0.0494
  337DOPC  H10X46481   0.939   8.919   3.011  2.2040 -0.0814  0.1980
  337DOPC  C31146482   0.817   8.732   3.005  0.5160  0.0511  0.5465
  337DOPC  H11X46483   0.836   8.624   2.988  1.2544  0.3054 -0.3538
  337DOPC  H11Y46484   0.723   8.756   2.951  1.0629 -1.1909 -1.0228
  337DOPC  C31246485   0.794   8.741   3.156  0.0457 -0.4942  0.4869
  337DOPC  H12X46486   0.710   8.671   3.177  2.1006 -3.5043 -0.5321
  337DOPC  H12Y46487   0.763   8.839   3.197 -1.9072  0.2545 -2.4847
  337DOPC  C31346488   0.912   8.690   3.234 -0.0088  0.2331 -0.2943
  337DOPC  H13X46489   0.965   8.622   3.165 -0.9463  1.4832 -2.3474
  337DOPC  H13Y46490   0.976   8.777   3.262 -0.4040  1.0608 -1.8402
  337DOPC  C31446491   0.873   8.628   3.370  0.5631  0.4734  0.2633
  337DOPC  H14X46492   0.797   8.546   3.377 -0.6982  1.6010  0.1561
  337DOPC  H14Y46493   0.972   8.594   3.407  0.8837  3.2515  2.2561
  337DOPC  C31546494   0.810   8.722   3.476  0.2443 -0.4993  0.0359
  337DOPC  H15X46495   0.703   8.741   3.453  0.0541 -1.0137  0.4844
  337DOPC  H15Y46496   0.860   8.821   3.469 -1.8666  0.6042 -0.2093
  337DOPC  C31646497   0.832   8.685   3.620 -0.5243  0.3166  0.8519
  337DOPC  H16X46498   0.921   8.619   3.628  1.1263  2.0580 -1.6710
  337DOPC  H16Y46499   0.854   8.778   3.677 -1.9950  0.1530  1.7262
  337DOPC  C31746500   0.717   8.617   3.689  0.3940 -0.0138 -0.2291
  337DOPC  H17X46501   0.641   8.694   3.714  1.6173  1.4974 -0.9812
  337DOPC  H17Y46502   0.657   8.555   3.619 -3.0775  1.1805  1.5083
  337DOPC  C31846503   0.763   8.541   3.816 -0.3126 -0.0111  0.5209
  337DOPC  H18X46504   0.795   8.439   3.785  1.7853  0.6756  0.2739
  337DOPC  H18Y46505   0.834   8.609   3.867 -0.5460  0.4151  0.2760
  337DOPC  H18Z46506   0.679   8.517   3.883 -0.4072  0.2706  0.5039
  338DOPC     N46507   2.164   7.222   1.282  0.3583  0.5280 -0.2178
  338DOPC   C1246508   2.155   7.158   1.416  0.4090 -0.2954 -0.2503
  338DOPC  H12A46509   2.251   7.114   1.436 -0.3001 -0.7820  2.4988
  338DOPC  H12B46510   2.077   7.083   1.411 -0.5452  0.6803 -0.4080
  338DOPC   C1346511   2.262   7.333   1.274  0.2385  0.2265 -0.4163
  338DOPC  H13A46512   2.268   7.381   1.178 -0.4982  0.8940 -0.1397
  338DOPC  H13B46513   2.245   7.418   1.339  0.5709  0.9471 -1.2536
  338DOPC  H13C46514   2.359   7.290   1.294 -0.5965 -0.8469  1.6962
  338DOPC   C1446515   2.033   7.285   1.246 -0.8817  0.0463  0.0649
  338DOPC  H14A46516   1.959   7.207   1.237 -1.3938  0.6229 -0.9070
  338DOPC  H14B46517   2.009   7.354   1.326  2.4304  1.0517  0.3215
  338DOPC  H14C46518   2.056   7.348   1.161 -2.1238 -0.9003 -1.0035
  338DOPC   C1546519   2.197   7.123   1.174 -0.3674 -1.0638 -0.2520
  338DOPC  H15A46520   2.182   7.164   1.075 -3.5437 -2.6841 -0.5744
  338DOPC  H15B46521   2.131   7.039   1.185 -1.0042 -0.2197  3.7147
  338DOPC  H15C46522   2.295   7.081   1.190 -0.7087 -1.8525 -0.1760
  338DOPC   C1146523   2.135   7.260   1.534  0.4248  0.2545 -0.3241
  338DOPC  H11A46524   2.040   7.317   1.526  1.0222  1.4396  0.6892
  338DOPC  H11B46525   2.117   7.194   1.622 -1.0816 -0.2139 -0.9509
  338DOPC     P46526   2.379   7.303   1.631  0.1203 -0.0794 -0.1095
  338DOPC   O1346527   2.466   7.425   1.649  0.1277 -0.7804 -0.0459
  338DOPC   O1446528   2.440   7.196   1.551 -0.6926  0.0923 -0.1722
  338DOPC   O1246529   2.249   7.344   1.557  0.4029  0.0828  0.0083
  338DOPC   O1146530   2.342   7.243   1.783 -0.5951  0.1562 -0.0301
  338DOPC    C146531   2.264   7.315   1.873  0.9630 -0.6547 -0.1290
  338DOPC    HA46532   2.161   7.273   1.875  0.8400 -0.5307 -2.0373
  338DOPC    HB46533   2.248   7.424   1.853 -2.0987 -0.2836  3.2036
  338DOPC    C246534   2.323   7.317   2.017  0.7476 -0.5871  0.0976
  338DOPC    HS46535   2.243   7.346   2.089  1.8190  0.4567  0.9019
  338DOPC   O2146536   2.443   7.394   2.009 -0.3845 -0.0899 -0.6515
  338DOPC   C2146537   2.433   7.523   2.036 -0.2796 -0.4277 -0.3163
  338DOPC   O2246538   2.328   7.585   2.055  0.4842  0.1518 -0.1893
  338DOPC   C2246539   2.571   7.599   2.048  0.8619  0.1422  0.4839
  338DOPC   H2R46540   2.542   7.707   2.043 -1.8358 -0.5712 -2.0898
  338DOPC   H2S46541   2.633   7.591   1.956 -0.5485  1.9038 -0.6940
  338DOPC    C346542   2.358   7.172   2.059 -0.5325  0.7889 -0.4112
  338DOPC    HX46543   2.443   7.143   1.993 -0.4952 -0.4050  0.1380
  338DOPC    HY46544   2.271   7.104   2.047 -0.6321  0.7203  0.6086
  338DOPC   O3146545   2.406   7.170   2.198 -0.1505  0.3402 -0.1575
  338DOPC   C3146546   2.316   7.116   2.284 -0.2339 -0.8044  0.2069
  338DOPC   O3246547   2.198   7.096   2.259 -0.0114  0.4731  0.4012
  338DOPC   C3246548   2.378   7.079   2.414  0.6072  0.3523  0.2551
  338DOPC   H2X46549   2.447   6.992   2.403 -0.9499 -1.1429  1.7972
  338DOPC   H2Y46550   2.439   7.165   2.449 -1.0280  2.5119 -1.8893
  338DOPC   C2346551   2.651   7.567   2.172 -0.3984  0.0266  0.3086
  338DOPC   H3R46552   2.719   7.653   2.187 -3.2814  2.3697  0.7495
  338DOPC   H3S46553   2.708   7.474   2.150 -1.2472 -0.7109  1.1611
  338DOPC   C2446554   2.562   7.542   2.297 -0.5432  0.3945 -0.8705
  338DOPC   H4R46555   2.500   7.451   2.282 -1.9599  1.1940 -0.0071
  338DOPC   H4S46556   2.496   7.630   2.309 -0.7223 -0.0081  1.4386
  338DOPC   C2546557   2.640   7.516   2.426  0.2624  0.2200  0.0342
  338DOPC   H5R46558   2.732   7.455   2.411  2.3722  3.0867  0.4387
  338DOPC   H5S46559   2.568   7.462   2.490 -0.6950  1.7276  0.2795
  338DOPC   C2646560   2.679   7.649   2.496  0.4080 -0.7670 -0.0155
  338DOPC   H6R46561   2.596   7.722   2.487  1.6735  0.4694 -4.4862
  338DOPC   H6S46562   2.774   7.682   2.448 -0.0584 -1.8818 -1.7930
  338DOPC   C2746563   2.712   7.613   2.645  0.6688 -0.0501  0.0282
  338DOPC   H7R46564   2.806   7.554   2.650  0.3180 -0.5872  0.3782
  338DOPC   H7S46565   2.629   7.552   2.687  1.3354 -0.2270  1.1159
  338DOPC   C2846566   2.745   7.738   2.727 -0.8430 -0.5831  0.7840
  338DOPC   H8R46567   2.825   7.791   2.672 -0.0606 -0.0611  2.3518
  338DOPC   H8S46568   2.802   7.699   2.814 -2.7444 -2.0853  1.4425
  338DOPC   C2946569   2.636   7.829   2.768  0.4790 -0.0480 -0.3932
  338DOPC   H9R46570   2.573   7.876   2.691  0.4694 -1.9434 -1.6315
  338DOPC  C21046571   2.620   7.866   2.898  0.0550  0.2490 -0.5539
  338DOPC  H10R46572   2.544   7.940   2.928 -0.7563 -0.7397 -0.1053
  338DOPC  C21146573   2.717   7.830   3.013  0.1513 -0.1545 -0.5007
  338DOPC  H11R46574   2.822   7.845   2.981 -0.2011 -0.3698 -1.7990
  338DOPC  H11S46575   2.694   7.721   3.020 -3.2156  0.1219 -3.7859
  338DOPC  C21246576   2.694   7.911   3.147  0.3651 -0.1639  0.5432
  338DOPC  H12R46577   2.678   8.016   3.115  2.4021 -0.4260 -1.6921
  338DOPC  H12S46578   2.786   7.901   3.209 -0.1448 -0.7309  1.2332
  338DOPC  C21346579   2.584   7.857   3.234  0.0114 -0.2119 -0.2849
  338DOPC  H13R46580   2.568   7.750   3.257  3.5397 -0.5982  0.9774
  338DOPC  H13S46581   2.493   7.896   3.184 -0.7645 -0.8626  0.5851
  338DOPC  C21446582   2.590   7.919   3.376  0.0561  0.2093  0.2441
  338DOPC  H14R46583   2.603   8.029   3.364 -0.8856  0.7255  3.1879
  338DOPC  H14S46584   2.664   7.866   3.439  1.2623  0.9526 -0.4972
  338DOPC  C21546585   2.443   7.926   3.436 -0.3171  0.1043  0.1152
  338DOPC  H15R46586   2.411   7.820   3.438 -2.3256  0.5866 -2.0637
  338DOPC  H15S46587   2.375   7.970   3.360  1.5315  2.5304 -0.2691
  338DOPC  C21646588   2.436   7.993   3.575  0.0602  0.6349  0.4585
  338DOPC  H16R46589   2.337   8.036   3.599  0.9428  4.5728 -1.9224
  338DOPC  H16S46590   2.496   8.087   3.571 -0.3142  0.9828  2.4599
  338DOPC  C21746591   2.500   7.910   3.679  0.3568 -0.4559 -1.0259
  338DOPC  H17R46592   2.607   7.886   3.663  0.2372 -0.1013 -2.5398
  338DOPC  H17S46593   2.447   7.812   3.686 -0.3318  0.0234  3.2075
  338DOPC  C21846594   2.479   7.976   3.813 -0.6040 -0.3039 -0.4998
  338DOPC  H18R46595   2.540   8.068   3.818  0.6152 -1.0586 -0.8605
  338DOPC  H18S46596   2.519   7.907   3.891 -0.7280  1.0336  0.7853
  338DOPC  H18T46597   2.374   7.996   3.842 -0.8717 -0.2967 -1.4539
  338DOPC   C3346598   2.277   7.041   2.525 -0.3635 -0.3384  0.1396
  338DOPC   H3X46599   2.234   6.944   2.494  2.6228 -1.1971 -1.7395
  338DOPC   H3Y46600   2.200   7.121   2.527  2.4774  2.6480  1.3644
  338DOPC   C3446601   2.341   7.026   2.665 -0.0219  0.2325  0.3314
  338DOPC   H4X46602   2.374   7.122   2.712  0.1389  0.0531  0.5877
  338DOPC   H4Y46603   2.426   6.955   2.655 -1.3097 -1.2562 -0.4235
  338DOPC   C3546604   2.239   6.969   2.770 -0.0412 -0.4602  0.4785
  338DOPC   H5X46605   2.182   6.883   2.729  1.0080 -0.5332 -0.8912
  338DOPC   H5Y46606   2.165   7.048   2.796  1.1694  1.0419 -0.4497
  338DOPC   C3646607   2.310   6.936   2.900  0.0775 -0.2941  0.1269
  338DOPC   H6X46608   2.243   6.865   2.953 -2.1118  0.0532 -2.0048
  338DOPC   H6Y46609   2.392   6.863   2.882  0.4662  0.3113 -0.6391
  338DOPC   C3746610   2.345   7.056   2.991  0.8683  0.5118 -0.0904
  338DOPC   H7X46611   2.415   7.127   2.942 -0.5378  2.0428  0.0059
  338DOPC   H7Y46612   2.250   7.114   2.985  0.5972 -0.0211 -1.3380
  338DOPC   C3846613   2.393   7.014   3.131 -0.4044 -0.4617  0.0533
  338DOPC   H8X46614   2.320   6.949   3.184 -0.6744  0.1935  0.5009
  338DOPC   H8Y46615   2.391   7.106   3.194 -0.8672 -1.5704  1.7270
  338DOPC   C3946616   2.529   6.952   3.114  0.3689  1.0590  0.2193
  338DOPC   H9X46617   2.572   6.993   3.021  0.5765  0.3833  0.0087
  338DOPC  C31046618   2.585   6.860   3.195 -0.3290  0.1410 -0.3753
  338DOPC  H10X46619   2.677   6.811   3.159  0.1690  0.7031  0.1243
  338DOPC  C31146620   2.540   6.812   3.329 -0.3703 -0.6313 -0.7459
  338DOPC  H11X46621   2.466   6.885   3.368  0.8558  0.8111 -1.0521
  338DOPC  H11Y46622   2.619   6.799   3.406 -0.5245  1.0695 -0.2658
  338DOPC  C31246623   2.476   6.677   3.326  0.3773  0.0637 -0.0481
  338DOPC  H12X46624   2.550   6.615   3.271 -0.9180 -1.3854 -0.2270
  338DOPC  H12Y46625   2.384   6.679   3.263  0.4987  0.1146 -0.2226
  338DOPC  C31346626   2.441   6.609   3.455 -0.1206  0.2564  0.0938
  338DOPC  H13X46627   2.398   6.508   3.442  0.6030  0.0249 -0.6270
  338DOPC  H13Y46628   2.536   6.593   3.511  0.2071  3.1520  0.5558
  338DOPC  C31446629   2.340   6.682   3.543 -0.3047  0.0100  0.3912
  338DOPC  H14X46630   2.396   6.775   3.568 -0.4264 -0.0796  1.0293
  338DOPC  H14Y46631   2.250   6.705   3.484  0.4491  0.8645 -0.4544
  338DOPC  C31546632   2.308   6.607   3.669 -0.2042  0.3258  0.1330
  338DOPC  H15X46633   2.260   6.675   3.743 -3.4099 -1.3294 -0.2854
  338DOPC  H15Y46634   2.403   6.570   3.714 -0.1628 -0.0915 -0.2842
  338DOPC  C31646635   2.210   6.495   3.663  0.0253 -0.0119  0.0510
  338DOPC  H16X46636   2.116   6.535   3.619 -0.2954 -0.8684 -0.0795
  338DOPC  H16Y46637   2.261   6.426   3.592  0.0087  0.0971 -0.0661
  338DOPC  C31746638   2.187   6.430   3.800 -0.3756  0.1423 -0.0059
  338DOPC  H17X46639   2.278   6.403   3.858 -0.3594  0.6457  0.2081
  338DOPC  H17Y46640   2.136   6.504   3.865 -0.4010  0.5482 -0.4839
  338DOPC  C31846641   2.107   6.303   3.783  0.6783 -0.1752  0.1469
  338DOPC  H18X46642   2.169   6.238   3.717 -0.0640 -0.1012 -0.6420
  338DOPC  H18Y46643   2.099   6.264   3.887 -2.2781 -1.7793 -0.5722
  338DOPC  H18Z46644   2.007   6.308   3.734  0.8440 -0.6132 -0.2538
  339DOPC     N46645   9.798   7.912   1.576  0.6801 -0.1431 -0.2941
  339DOPC   C1246646   9.704   7.873   1.693 -0.0223 -0.2988 -0.3435
  339DOPC  H12A46647   9.770   7.842   1.772  0.2583 -0.5974 -0.6900
  339DOPC  H12B46648   9.648   7.787   1.658 -0.8470  1.2709 -3.2439
  339DOPC   C1346649   9.907   7.815   1.546  0.5514  0.3360 -0.0729
  339DOPC  H13A46650   9.952   7.849   1.454 -0.7166 -0.7853 -1.1455
  339DOPC  H13B46651   9.981   7.827   1.624 -0.3160  0.4899  0.7441
  339DOPC  H13C46652   9.867   7.715   1.540  1.7751 -0.1517 -0.3544
  339DOPC   C1446653   9.873   8.042   1.614 -0.6584 -0.2830 -0.4230
  339DOPC  H14A46654   9.933   8.025   1.703 -0.8277  1.5132  0.0741
  339DOPC  H14B46655   9.941   8.073   1.537  0.8882  1.3166  1.4726
  339DOPC  H14C46656   9.811   8.129   1.630 -0.2421  0.2522 -1.6037
  339DOPC   C1546657   9.712   7.936   1.457  0.0070  0.1353 -0.0250
  339DOPC  H15A46658   9.641   8.017   1.463 -0.9780 -0.7072  0.0337
  339DOPC  H15B46659   9.662   7.850   1.414 -2.4024  1.2545  0.3415
  339DOPC  H15C46660   9.775   7.969   1.376  1.8048  0.2406  1.3718
  339DOPC   C1146661   9.602   7.972   1.760  0.0496 -0.3728  0.3579
  339DOPC  H11A46662   9.556   7.919   1.847 -0.2862  0.2404  0.5592
  339DOPC  H11B46663   9.674   8.049   1.792 -0.8124  0.2166  0.9405
  339DOPC     P46664   9.381   7.945   1.633  0.3524 -0.2165 -0.2193
  339DOPC   O1346665   9.411   7.815   1.564  0.0646 -0.3642 -0.2295
  339DOPC   O1446666   9.284   8.031   1.560 -0.1259 -0.2538 -0.4559
  339DOPC   O1246667   9.509   8.030   1.672 -0.2431  0.3866 -0.0872
  339DOPC   O1146668   9.311   7.904   1.769  0.2404 -0.3899  0.1522
  339DOPC    C146669   9.237   8.012   1.840 -0.4361 -0.4192  0.6752
  339DOPC    HA46670   9.153   8.031   1.769  0.6738 -0.5998 -0.7280
  339DOPC    HB46671   9.291   8.109   1.845  2.8899 -1.8558 -2.5305
  339DOPC    C246672   9.182   7.976   1.981 -0.3330  0.7896 -0.3935
  339DOPC    HS46673   9.121   8.062   2.015 -0.1118  0.7555  0.1041
  339DOPC   O2146674   9.279   7.952   2.083 -0.1834 -0.1520 -0.0945
  339DOPC   C2146675   9.360   8.062   2.110  0.9299  1.1421 -0.5413
  339DOPC   O2246676   9.329   8.173   2.082  0.2579  0.1043  0.0096
  339DOPC   C2246677   9.492   8.010   2.179  0.3168  0.2428 -0.4193
  339DOPC   H2R46678   9.582   8.022   2.115  0.1125  1.0235 -0.5747
  339DOPC   H2S46679   9.485   7.903   2.207  1.2754  0.3570  0.3233
  339DOPC    C346680   9.093   7.848   1.974 -0.0336 -0.4819 -0.4884
  339DOPC    HX46681   9.161   7.764   1.949  1.6960  1.1879 -1.5835
  339DOPC    HY46682   9.018   7.854   1.892 -0.7055 -0.2732  0.1318
  339DOPC   O3146683   9.034   7.824   2.106  0.1634  0.4539  0.8213
  339DOPC   C3146684   8.923   7.886   2.122  0.0095 -0.4223  0.8947
  339DOPC   O3246685   8.877   7.963   2.043 -0.0841  0.2967 -0.1422
  339DOPC   C3246686   8.857   7.845   2.255 -0.0904  0.1394 -0.1326
  339DOPC   H2X46687   8.764   7.794   2.221  1.4216 -2.6125 -0.4126
  339DOPC   H2Y46688   8.916   7.761   2.296  2.1865  0.7233 -2.0005
  339DOPC   C2346689   9.520   8.088   2.311 -0.9447 -0.3222 -0.1099
  339DOPC   H3R46690   9.426   8.078   2.369 -1.2271  1.6708 -0.1463
  339DOPC   H3S46691   9.535   8.193   2.279 -0.1016 -0.7266 -1.1083
  339DOPC   C2446692   9.633   8.032   2.392  0.3412 -0.3807  0.6036
  339DOPC   H4R46693   9.715   7.990   2.330 -0.8673 -0.7229 -0.8088
  339DOPC   H4S46694   9.602   7.946   2.455 -0.0290 -1.3202 -0.8157
  339DOPC   C2546695   9.688   8.139   2.487  0.2690 -0.1791 -0.0296
  339DOPC   H5R46696   9.609   8.210   2.519  1.5376  1.8611 -1.2079
  339DOPC   H5S46697   9.772   8.190   2.436  0.0272 -1.1970 -1.4892
  339DOPC   C2646698   9.749   8.072   2.614  1.0708 -0.9406 -0.7095
  339DOPC   H6R46699   9.840   8.009   2.600  1.4558 -1.0417  1.7410
  339DOPC   H6S46700   9.663   8.012   2.649  0.3148  1.8480  2.7530
  339DOPC   C2746701   9.778   8.179   2.724 -0.0037 -0.1806  0.1485
  339DOPC   H7R46702   9.684   8.235   2.742 -1.0722 -0.8280 -2.7772
  339DOPC   H7S46703   9.862   8.244   2.693  0.1082 -1.0900 -1.5958
  339DOPC   C2846704   9.837   8.100   2.848 -0.1453  0.4949 -0.0028
  339DOPC   H8R46705   9.920   8.032   2.823  1.1151  1.4615  1.4108
  339DOPC   H8S46706   9.754   8.030   2.873  0.7837 -0.9710 -0.9123
  339DOPC   C2946707   9.875   8.190   2.963 -0.4565 -0.0428  0.4457
  339DOPC   H9R46708   9.974   8.239   2.956 -1.0474  1.2368  0.7266
  339DOPC  C21046709   9.796   8.230   3.066 -0.2220 -0.1427 -0.1615
  339DOPC  H10R46710   9.835   8.292   3.147  0.0733  0.5439 -0.8147
  339DOPC  C21146711   9.659   8.182   3.100 -0.3429 -0.0629  0.4031
  339DOPC  H11R46712   9.605   8.148   3.010  0.5788  0.6310 -0.4359
  339DOPC  H11S46713   9.589   8.260   3.137 -2.0284 -0.8760 -0.9489
  339DOPC  C21246714   9.659   8.064   3.186  0.0612  0.4320  0.5670
  339DOPC  H12R46715   9.728   7.980   3.163  1.2932  1.0896  1.6780
  339DOPC  H12S46716   9.554   8.029   3.175  0.0233  0.2240  1.4882
  339DOPC  C21346717   9.691   8.105   3.331  0.2801  0.0427  0.2501
  339DOPC  H13R46718   9.646   8.204   3.352 -0.2772 -0.3717  1.0638
  339DOPC  H13S46719   9.799   8.133   3.337 -0.1135  1.9102 -0.6789
  339DOPC  C21446720   9.647   8.003   3.442  0.7015  0.1063  0.0154
  339DOPC  H14R46721   9.679   7.905   3.399 -0.5946  0.2163 -1.2829
  339DOPC  H14S46722   9.540   8.021   3.466  1.5931  2.6605  2.6408
  339DOPC  C21546723   9.718   8.025   3.572 -0.9615 -0.2805 -0.2753
  339DOPC  H15R46724   9.729   8.133   3.598 -0.2768 -1.1774  3.7308
  339DOPC  H15S46725   9.821   7.985   3.562 -1.4746 -1.2134 -2.6275
  339DOPC  C21646726   9.655   7.945   3.692 -0.2123  0.5058  0.8740
  339DOPC  H16R46727   9.648   7.836   3.670  0.6102  0.4852  0.7156
  339DOPC  H16S46728   9.551   7.981   3.711 -0.3559 -0.4569  2.0733
  339DOPC  C21746729   9.743   7.958   3.817 -0.5947 -0.6592  0.0461
  339DOPC  H17R46730   9.681   7.933   3.906  0.6596 -2.6836  0.4269
  339DOPC  H17S46731   9.780   8.061   3.832 -1.5818 -0.3919  0.8041
  339DOPC  C21846732   9.858   7.857   3.821 -0.2082  0.6797 -0.0641
  339DOPC  H18R46733   9.853   7.778   3.743  0.5660 -0.1950  0.7458
  339DOPC  H18S46734   9.865   7.811   3.922 -1.1586  1.0769  0.1928
  339DOPC  H18T46735   9.950   7.918   3.813 -1.1382  2.2055  0.4965
  339DOPC   C3346736   8.829   7.960   2.356 -0.0559  0.0297  0.7720
  339DOPC   H3X46737   8.763   7.927   2.439 -1.8694  2.1163  0.2529
  339DOPC   H3Y46738   8.767   8.041   2.312  2.3482  1.6364  0.0953
  339DOPC   C3446739   8.954   8.024   2.414  0.4184  1.0188 -0.2713
  339DOPC   H4X46740   9.027   8.044   2.333 -0.2009  1.2811 -0.7797
  339DOPC   H4Y46741   9.015   7.960   2.481  0.4094  3.2302  1.9827
  339DOPC   C3546742   8.918   8.148   2.493 -0.1063 -0.4900  0.8056
  339DOPC   H5X46743   8.966   8.148   2.593 -2.6694  0.0227  2.1091
  339DOPC   H5Y46744   8.809   8.154   2.511 -0.3185 -3.3461  0.7928
  339DOPC   C3646745   8.972   8.276   2.417 -0.2490  0.5609 -0.3917
  339DOPC   H6X46746   8.918   8.282   2.321  0.0214 -0.0430 -0.5825
  339DOPC   H6Y46747   8.944   8.368   2.473  0.0402  0.9266 -0.8412
  339DOPC   C3746748   9.126   8.292   2.402 -0.0354  0.8137 -0.5492
  339DOPC   H7X46749   9.174   8.240   2.488  0.2042 -1.3279 -1.8943
  339DOPC   H7Y46750   9.166   8.245   2.310  1.7562 -1.2983  1.2011
  339DOPC   C3846751   9.156   8.443   2.405  0.5356  0.0182  0.3654
  339DOPC   H8X46752   9.109   8.489   2.494 -0.1344  0.7384 -0.3465
  339DOPC   H8Y46753   9.113   8.487   2.313  0.9507 -1.5010 -0.5842
  339DOPC   C3946754   9.303   8.469   2.397  0.6621  0.5295 -0.0460
  339DOPC   H9X46755   9.364   8.382   2.366 -1.0990 -0.2681 -1.4730
  339DOPC  C31046756   9.376   8.576   2.429  0.5779 -0.1765  1.4005
  339DOPC  H10X46757   9.485   8.576   2.413  0.5597 -2.5241  0.7877
  339DOPC  C31146758   9.314   8.701   2.481 -0.1099 -0.3261 -0.3197
  339DOPC  H11X46759   9.204   8.693   2.498 -0.2711  0.5950 -0.8653
  339DOPC  H11Y46760   9.341   8.783   2.412 -1.1116  0.0531 -0.2762
  339DOPC  C31246761   9.386   8.735   2.612  0.3395 -0.7843  0.0564
  339DOPC  H12X46762   9.363   8.840   2.639 -0.3325 -0.8322 -0.3108
  339DOPC  H12Y46763   9.497   8.731   2.609  0.3117 -1.8241 -2.4808
  339DOPC  C31346764   9.357   8.633   2.737 -0.2353  0.5921  0.5324
  339DOPC  H13X46765   9.247   8.635   2.750 -0.0773  2.9704  2.1558
  339DOPC  H13Y46766   9.384   8.529   2.709  0.7038  1.4310 -1.9402
  339DOPC  C31446767   9.442   8.676   2.854 -0.0993 -0.0864 -0.0788
  339DOPC  H14X46768   9.529   8.730   2.812 -0.8094 -0.6187 -2.3730
  339DOPC  H14Y46769   9.389   8.751   2.917  0.1100 -0.4582  0.5449
  339DOPC  C31546770   9.504   8.562   2.936 -0.5693 -0.5387  1.0500
  339DOPC  H15X46771   9.565   8.506   2.862 -2.0182 -0.2598 -0.3995
  339DOPC  H15Y46772   9.426   8.497   2.981  0.0436 -1.1223  1.2820
  339DOPC  C31646773   9.594   8.627   3.040 -0.0197 -0.4888 -0.4570
  339DOPC  H16X46774   9.655   8.551   3.093 -0.5135 -0.1570  0.6153
  339DOPC  H16Y46775   9.665   8.692   2.984 -0.3963  0.7141  0.4232
  339DOPC  C31746776   9.512   8.693   3.158  0.7054  0.0728 -0.3150
  339DOPC  H17X46777   9.539   8.800   3.171  1.9181 -0.5866  3.9179
  339DOPC  H17Y46778   9.403   8.685   3.141  0.5174 -1.0286  1.2368
  339DOPC  C31846779   9.541   8.622   3.293  0.4573 -0.6168 -0.9023
  339DOPC  H18X46780   9.513   8.515   3.281 -0.2419 -0.4407 -0.8606
  339DOPC  H18Y46781   9.647   8.641   3.321 -0.2862  0.6939  1.2840
  339DOPC  H18Z46782   9.474   8.652   3.376  3.0514  0.4450  0.9558
  340DOPC     N46783   6.926  12.333   2.555  0.3148 -1.1532  0.2129
  340DOPC   C1246784   6.940  12.199   2.618  0.7549  0.2905  0.1348
  340DOPC  H12A46785   7.038  12.195   2.663  1.6704  1.9490 -1.5872
  340DOPC  H12B46786   6.951  12.130   2.535 -1.2352 -0.3408  0.3382
  340DOPC   C1346787   7.038  12.355   2.458 -0.0426 -0.1167 -0.2873
  340DOPC  H13A46788   7.051  12.459   2.431  1.3253 -0.9125 -3.0714
  340DOPC  H13B46789   7.131  12.326   2.504 -0.0796 -0.4803 -0.4388
  340DOPC  H13C46790   7.024  12.308   2.362  1.5284  1.4302 -1.3516
  340DOPC   C1446791   6.946  12.430   2.670  0.6122 -0.2205 -0.4139
  340DOPC  H14A46792   7.038  12.403   2.720  0.2637  0.4803  0.6275
  340DOPC  H14B46793   6.953  12.532   2.635  0.3981 -0.1749 -0.3280
  340DOPC  H14C46794   6.865  12.432   2.741 -0.3420 -2.7491 -1.3091
  340DOPC   C1546795   6.790  12.358   2.495 -0.3402 -0.2127 -0.6758
  340DOPC  H15A46796   6.708  12.347   2.565  0.5293  0.3397  0.4759
  340DOPC  H15B46797   6.764  12.291   2.415  1.0692 -0.6997 -0.7537
  340DOPC  H15C46798   6.791  12.454   2.445 -1.3343  0.6642  0.8934
  340DOPC   C1146799   6.833  12.141   2.708 -0.4665  0.1067  0.4895
  340DOPC  H11A46800   6.868  12.047   2.756  2.6150  1.5658  1.3816
  340DOPC  H11B46801   6.824  12.210   2.794  0.5334 -0.7601  1.3210
  340DOPC     P46802   6.663  11.991   2.581  0.1667 -0.1613  0.2297
  340DOPC   O1346803   6.786  11.906   2.559 -0.2457  0.3847 -0.2261
  340DOPC   O1446804   6.589  12.030   2.458  1.0640 -0.1084  0.0733
  340DOPC   O1246805   6.705  12.122   2.655  0.4233  1.0997  0.2071
  340DOPC   O1146806   6.571  11.921   2.686  0.2107 -0.3261 -0.0624
  340DOPC    C146807   6.464  11.985   2.752  0.5338 -0.0221 -0.1453
  340DOPC    HA46808   6.365  11.962   2.705  0.2066  0.6712  0.1853
  340DOPC    HB46809   6.477  12.095   2.753 -0.5341  0.1192  1.7009
  340DOPC    C246810   6.470  11.931   2.893  0.6231 -0.4168 -1.4918
  340DOPC    HS46811   6.425  11.830   2.899  1.8347 -0.8901  0.6060
  340DOPC   O2146812   6.404  12.021   2.989 -0.5102  0.0090 -0.4394
  340DOPC   C2146813   6.279  12.029   2.983  0.2959 -1.3107  0.1698
  340DOPC   O2246814   6.206  11.978   2.902  0.1543 -0.0805 -0.0999
  340DOPC   C2246815   6.219  12.111   3.100  0.2210  1.0293  0.0253
  340DOPC   H2R46816   6.114  12.076   3.097  0.6025 -0.2848  0.9600
  340DOPC   H2S46817   6.234  12.221   3.088  0.3851  0.9328 -0.7374
  340DOPC    C346818   6.616  11.915   2.957 -0.2062 -0.1913  0.6899
  340DOPC    HX46819   6.666  12.013   2.941 -0.4102 -0.4853 -2.5271
  340DOPC    HY46820   6.663  11.836   2.895  0.2934 -0.2559  1.1490
  340DOPC   O3146821   6.604  11.865   3.092 -0.0136  0.2897  0.4540
  340DOPC   C3146822   6.616  11.965   3.184  0.2817 -0.2366 -0.4601
  340DOPC   O3246823   6.637  12.083   3.158 -0.7203  0.1658  0.3214
  340DOPC   C3246824   6.595  11.903   3.319 -0.0621  0.4708  0.0248
  340DOPC   H2X46825   6.488  11.885   3.342  0.1866 -0.4067  0.5531
  340DOPC   H2Y46826   6.653  11.809   3.331  0.9741  1.0626 -0.2144
  340DOPC   C2346827   6.274  12.061   3.236  0.5031  0.6860  0.8229
  340DOPC   H3R46828   6.374  12.106   3.253 -0.1561  2.2106  0.8468
  340DOPC   H3S46829   6.273  11.950   3.241  1.4374  0.6872  1.3382
  340DOPC   C2446830   6.196  12.110   3.357  0.4218 -0.0756  0.2941
  340DOPC   H4R46831   6.095  12.066   3.340 -0.1117  1.2534 -0.0913
  340DOPC   H4S46832   6.192  12.221   3.359 -1.6360 -0.0645 -1.2144
  340DOPC   C2546833   6.269  12.057   3.484  0.7799 -0.5223  0.3528
  340DOPC   H5R46834   6.375  12.090   3.483  1.2968 -2.0537 -0.7813
  340DOPC   H5S46835   6.273  11.946   3.498 -1.1575 -0.7423 -0.5020
  340DOPC   C2646836   6.195  12.110   3.611 -0.8293 -0.2148 -0.4488
  340DOPC   H6R46837   6.099  12.056   3.627 -0.9374  0.1845  0.3420
  340DOPC   H6S46838   6.169  12.216   3.589  0.8134  0.0532 -1.2306
  340DOPC   C2746839   6.297  12.107   3.727 -0.1252  0.0479  0.4359
  340DOPC   H7R46840   6.380  12.175   3.698  0.7327 -1.3335 -0.4955
  340DOPC   H7S46841   6.344  12.006   3.734 -1.0096 -0.3641  0.6296
  340DOPC   C2846842   6.240  12.149   3.863  0.2940 -0.2288  1.0316
  340DOPC   H8R46843   6.241  12.260   3.857  1.7741 -0.1523  2.2227
  340DOPC   H8S46844   6.308  12.117   3.944  0.3669  0.2853  1.1774
  340DOPC   C2946845   6.103  12.096   3.889  0.3425  0.1021 -0.3617
  340DOPC   H9R46846   6.086  11.990   3.868 -0.5464  0.4853 -1.7220
  340DOPC  C21046847   5.992  12.178   3.894 -0.0652 -0.4037 -0.4683
  340DOPC  H10R46848   5.896  12.126   3.906 -0.1898  0.1581  1.2641
  340DOPC  C21146849   5.979  12.326   3.881  0.0036  0.5315  0.1511
  340DOPC  H11R46850   6.072  12.372   3.841  0.7832 -2.7670 -2.3267
  340DOPC  H11S46851   5.948  12.368   3.978  0.6328 -2.8941  2.0224
  340DOPC  C21246852   5.862  12.367   3.796 -0.2905  0.3755  0.1648
  340DOPC  H12R46853   5.767  12.317   3.825  0.3371 -0.0797  1.5020
  340DOPC  H12S46854   5.889  12.345   3.690  0.3987  0.7368  0.2612
  340DOPC  C21346855   5.834  12.518   3.797  0.4706  0.0946 -0.2026
  340DOPC  H13R46856   5.759  12.534   3.717  0.7131 -0.8878 -0.6450
  340DOPC  H13S46857   5.923  12.583   3.783 -0.0879  1.2953  1.4282
  340DOPC  C21446858   5.774  12.590   3.920 -0.5170  0.8338  0.2458
  340DOPC  H14R46859   5.859  12.596   3.992  1.7615 -1.4945 -2.0692
  340DOPC  H14S46860   5.699  12.525   3.970  0.1324 -0.5178 -0.4790
  340DOPC  C21546861   5.728  12.735   3.885  0.2883  0.9809 -0.9990
  340DOPC  H15R46862   5.654  12.728   3.802  1.0249 -1.5531 -1.5219
  340DOPC  H15S46863   5.816  12.798   3.861  1.6458 -0.8282 -0.9944
  340DOPC  C21646864   5.663  12.794   4.010  0.1724 -0.7609  0.3562
  340DOPC  H16R46865   5.738  12.828   4.084  1.0838  1.0968 -1.3401
  340DOPC  H16S46866   5.599  12.715   4.056  1.0993 -0.9981  1.2837
  340DOPC  C21746867   5.560  12.905   3.982  0.3092 -0.1024 -0.1761
  340DOPC  H17R46868   5.494  12.883   3.895  0.3768  1.0442 -0.5311
  340DOPC  H17S46869   5.613  13.000   3.964  0.4063 -0.1238 -0.0077
  340DOPC  C21846870   5.467  12.928   4.098  0.1983 -0.4855  0.1832
  340DOPC  H18R46871   5.391  12.847   4.099 -1.4112  0.9712  0.1866
  340DOPC  H18S46872   5.412  13.020   4.072  1.7755 -0.1896 -2.4189
  340DOPC  H18T46873   5.508  12.937   4.201 -1.6904  0.6744  0.8903
  340DOPC   C3346874   6.650  11.988   3.434  0.1921  0.1735 -0.7350
  340DOPC   H3X46875   6.590  12.082   3.436  1.1295  0.8118 -1.6446
  340DOPC   H3Y46876   6.758  12.007   3.419  0.6414 -1.8826 -0.4111
  340DOPC   C3446877   6.625  11.920   3.569  0.1265 -0.0904 -0.5787
  340DOPC   H4X46878   6.678  11.822   3.571 -1.6134 -1.0534  1.1156
  340DOPC   H4Y46879   6.522  11.880   3.578  1.4164 -3.1273  2.9454
  340DOPC   C3546880   6.645  12.011   3.690 -0.0389  0.2205  0.5695
  340DOPC   H5X46881   6.580  12.100   3.679 -1.4795 -0.8783 -0.2734
  340DOPC   H5Y46882   6.748  12.053   3.684 -0.7324  1.8980 -0.2074
  340DOPC   C3646883   6.641  11.930   3.819  0.8330 -0.2456  0.7993
  340DOPC   H6X46884   6.534  11.913   3.845  0.2256  2.5407  0.4752
  340DOPC   H6Y46885   6.695  11.834   3.816  1.0185 -0.2136 -3.7660
  340DOPC   C3746886   6.704  12.010   3.932 -0.2309 -0.2533 -0.2832
  340DOPC   H7X46887   6.813  12.023   3.914 -0.1718 -0.5748 -0.1621
  340DOPC   H7Y46888   6.647  12.105   3.929 -0.2873 -0.3011 -1.4337
  340DOPC   C3846889   6.673  11.947   4.065  0.0892  0.6054 -0.0477
  340DOPC   H8X46890   6.716  11.846   4.079 -2.2029 -0.4758 -0.3299
  340DOPC   H8Y46891   6.562  11.936   4.064  0.3310 -3.4694 -1.4825
  340DOPC   C3946892   6.724  12.038   4.173  0.7268  0.7029 -0.6786
  340DOPC   H9X46893   6.809  12.008   4.237 -0.4058  1.0156  1.0521
  340DOPC  C31046894   6.666  12.149   4.215 -0.2970 -0.1117  0.4942
  340DOPC  H10X46895   6.715  12.204   4.298  1.2105 -0.4731 -0.1313
  340DOPC  C31146896   6.530  12.209   4.169  0.2100 -0.4241 -0.3515
  340DOPC  H11X46897   6.448  12.212   4.244  0.0202  1.1084 -0.5976
  340DOPC  H11Y46898   6.491  12.147   4.084  3.1147 -1.9393 -0.7102
  340DOPC  C31246899   6.537  12.361   4.138  0.3172  0.6711  0.0569
  340DOPC  H12X46900   6.433  12.393   4.112 -0.7179 -0.3534  2.5829
  340DOPC  H12Y46901   6.596  12.387   4.047 -1.1439  2.2697 -0.5012
  340DOPC  C31346902   6.583  12.454   4.255 -0.4218  0.7569  0.1240
  340DOPC  H13X46903   6.513  12.447   4.341 -1.5226  2.7094 -0.5411
  340DOPC  H13Y46904   6.683  12.421   4.293  0.1613  1.6129 -0.6188
  340DOPC  C31446905   6.590  12.607   4.222 -0.9622  0.3957  0.3704
  340DOPC  H14X46906   6.681  12.624   4.160 -0.5917 -2.1237  0.1219
  340DOPC  H14Y46907   6.504  12.644   4.162  0.8493 -0.1103 -2.7776
  340DOPC  C31546908   6.594  12.699   4.344 -0.5270  0.1808  0.0015
  340DOPC  H15X46909   6.682  12.668   4.405 -0.4583  4.7621  2.6730
  340DOPC  H15Y46910   6.506  12.670   4.404  0.4216 -1.2952  0.7391
  340DOPC  C31646911   6.603  12.850   4.311 -0.8152  0.5406  0.1644
  340DOPC  H16X46912   6.618  12.911   4.403  1.1944  2.6569 -1.4452
  340DOPC  H16Y46913   6.697  12.870   4.255 -1.7193  0.8807 -1.2868
  340DOPC  C31746914   6.484  12.907   4.238  0.0658 -0.5023 -0.1746
  340DOPC  H17X46915   6.463  12.862   4.138 -3.5799 -0.2177  0.3341
  340DOPC  H17Y46916   6.396  12.894   4.304  0.1169  0.1269  0.0209
  340DOPC  C31846917   6.504  13.056   4.218 -0.4527 -0.4090 -0.0322
  340DOPC  H18X46918   6.520  13.114   4.311  2.2164  0.5774 -1.0263
  340DOPC  H18Y46919   6.601  13.066   4.165 -0.4964 -0.1535 -0.0610
  340DOPC  H18Z46920   6.415  13.091   4.161 -2.0135 -0.3263  2.3101
  341DOPC     N46921   5.546  12.193   2.484 -0.7893  0.2462  0.0655
  341DOPC   C1246922   5.591  12.137   2.622  0.2055  0.8405 -0.0342
  341DOPC  H12A46923   5.511  12.144   2.695 -0.7314  0.3559 -0.9974
  341DOPC  H12B46924   5.663  12.204   2.667 -2.3076  2.5969  1.6577
  341DOPC   C1346925   5.493  12.325   2.501 -0.1335 -0.1764 -0.0228
  341DOPC  H13A46926   5.538  12.378   2.583 -0.5116  2.9358 -1.6938
  341DOPC  H13B46927   5.515  12.392   2.419 -1.1928 -0.3163 -0.4420
  341DOPC  H13C46928   5.389  12.342   2.525 -0.6031 -0.6447 -1.5422
  341DOPC   C1446929   5.449  12.100   2.417 -0.5377 -0.8242  0.2125
  341DOPC  H14A46930   5.366  12.086   2.484 -2.1138 -1.0156 -1.6683
  341DOPC  H14B46931   5.408  12.130   2.321 -0.3498 -2.2536 -0.3382
  341DOPC  H14C46932   5.495  12.003   2.406 -0.1705 -0.7920  1.3720
  341DOPC   C1546933   5.664  12.214   2.385  0.0950 -0.2457 -0.2256
  341DOPC  H15A46934   5.720  12.302   2.413 -0.5333  0.9180 -2.4182
  341DOPC  H15B46935   5.644  12.241   2.283 -0.5548 -0.2365 -0.0982
  341DOPC  H15C46936   5.725  12.126   2.371  1.6458  0.4841  1.4681
  341DOPC   C1146937   5.642  11.985   2.626  0.4879 -0.5633  0.0555
  341DOPC  H11A46938   5.696  11.974   2.722 -0.1153 -0.1500  0.4456
  341DOPC  H11B46939   5.554  11.918   2.618  0.1889 -0.1833  0.1392
  341DOPC     P46940   5.756  11.835   2.440 -0.3565  0.2232 -0.1041
  341DOPC   O1346941   5.869  11.853   2.352 -0.4106  0.1675  0.1668
  341DOPC   O1446942   5.631  11.801   2.366 -0.1827  0.3584  0.0516
  341DOPC   O1246943   5.739  11.959   2.524 -0.2199 -0.0229  0.5831
  341DOPC   O1146944   5.801  11.723   2.539 -0.4649  0.2075 -0.5907
  341DOPC    C146945   5.894  11.764   2.641 -0.7388 -0.1579 -0.7496
  341DOPC    HA46946   5.907  11.872   2.665  2.5642 -0.1892 -1.9339
  341DOPC    HB46947   5.998  11.738   2.615 -0.6193 -0.5246  0.0597
  341DOPC    C246948   5.868  11.689   2.778  0.1880 -0.0044  0.4167
  341DOPC    HS46949   5.890  11.582   2.760 -1.2908 -0.3756  0.6968
  341DOPC   O2146950   5.733  11.705   2.826 -0.5486 -0.3015 -0.2616
  341DOPC   C2146951   5.641  11.640   2.770  0.1351 -0.0821 -0.5235
  341DOPC   O2246952   5.653  11.551   2.689  0.5427 -0.4380 -0.1881
  341DOPC   C2246953   5.513  11.687   2.831  0.1039  0.1077  0.4324
  341DOPC   H2R46954   5.432  11.631   2.781 -0.5275 -1.1478  2.7042
  341DOPC   H2S46955   5.508  11.795   2.807 -0.8288  0.5603  2.4572
  341DOPC    C346956   5.958  11.730   2.893  0.4377 -0.3004 -0.5687
  341DOPC    HX46957   5.943  11.840   2.899 -0.4585 -0.4537  0.2356
  341DOPC    HY46958   6.066  11.707   2.876  0.6022 -1.9316  2.0424
  341DOPC   O3146959   5.927  11.663   3.016 -0.3544 -0.1788 -0.3403
  341DOPC   C3146960   5.862  11.736   3.111  0.5945  0.0598 -0.2103
  341DOPC   O3246961   5.819  11.849   3.091  0.4282 -0.0311 -0.9496
  341DOPC   C3246962   5.834  11.645   3.232  0.4103  0.5390  0.0588
  341DOPC   H2X46963   5.735  11.600   3.209 -0.0778  2.2985 -1.5621
  341DOPC   H2Y46964   5.912  11.567   3.239 -0.9571 -0.9424 -0.6981
  341DOPC   C2346965   5.483  11.664   2.982  0.3274  0.6793  0.6203
  341DOPC   H3R46966   5.405  11.726   3.031  1.7285  0.5641  3.1625
  341DOPC   H3S46967   5.580  11.668   3.036  0.5063 -0.0514  0.3634
  341DOPC   C2446968   5.426  11.517   3.002 -0.5555  0.2581  0.5081
  341DOPC   H4R46969   5.483  11.448   2.937  0.2376  0.7249  0.6961
  341DOPC   H4S46970   5.322  11.523   2.963 -0.6195  0.8075  0.7570
  341DOPC   C2546971   5.426  11.462   3.146 -0.3046 -0.3379 -0.2326
  341DOPC   H5R46972   5.522  11.407   3.158  1.0709  2.4217  3.0762
  341DOPC   H5S46973   5.351  11.381   3.161 -1.0289  0.2852 -0.4304
  341DOPC   C2646974   5.407  11.576   3.245  0.0513 -0.5150  0.5123
  341DOPC   H6R46975   5.310  11.624   3.220 -0.0525 -1.1641 -0.3957
  341DOPC   H6S46976   5.487  11.651   3.233 -1.5607  1.7132  2.7586
  341DOPC   C2746977   5.405  11.512   3.384 -0.0806 -0.1674  0.3097
  341DOPC   H7R46978   5.454  11.579   3.459  1.8349 -1.0405 -0.0906
  341DOPC   H7S46979   5.482  11.431   3.380  1.5440  1.3312 -0.1425
  341DOPC   C2846980   5.270  11.452   3.434  0.0123  0.3635  0.3778
  341DOPC   H8R46981   5.234  11.378   3.359  1.0396  0.7068 -0.4825
  341DOPC   H8S46982   5.205  11.542   3.439 -0.9553 -0.3659  1.2363
  341DOPC   C2946983   5.281  11.378   3.566  0.4200 -0.0102  0.2680
  341DOPC   H9R46984   5.298  11.269   3.569 -1.9317 -0.4218  0.2178
  341DOPC  C21046985   5.260  11.436   3.686 -0.1885  0.3743  0.4024
  341DOPC  H10R46986   5.277  11.375   3.777 -0.3846 -0.8213 -0.3439
  341DOPC  C21146987   5.234  11.583   3.707  0.2590 -0.7355 -0.4838
  341DOPC  H11R46988   5.283  11.645   3.630  1.6516 -0.6713  0.4251
  341DOPC  H11S46989   5.286  11.623   3.796  1.5664  0.1974 -1.6301
  341DOPC  C21246990   5.087  11.624   3.694  0.1888 -0.1046  1.2786
  341DOPC  H12R46991   5.050  11.634   3.590  0.3894 -2.3717  0.9377
  341DOPC  H12S46992   5.095  11.732   3.721 -0.6717  0.0985  0.7484
  341DOPC  C21346993   4.981  11.570   3.792 -0.2721  0.2996  0.0476
  341DOPC  H13R46994   4.943  11.475   3.749 -0.2517  0.4867 -0.3972
  341DOPC  H13S46995   4.898  11.644   3.797 -0.2039  0.4902 -1.1623
  341DOPC  C21446996   5.045  11.546   3.933  0.3433  0.2776  0.3212
  341DOPC  H14R46997   4.983  11.595   4.011 -0.1664  1.5818 -0.8535
  341DOPC  H14S46998   5.151  11.574   3.950  0.4668 -0.3878  0.6528
  341DOPC  C21546999   5.031  11.402   3.974 -0.2742 -0.0101  0.2050
  341DOPC  H15R47000   5.065  11.337   3.891 -0.1510  1.0683 -0.6165
  341DOPC  H15S47001   4.924  11.379   3.996 -0.4123  0.9880  0.6478
  341DOPC  C21647002   5.117  11.355   4.089 -0.0715 -0.0952 -0.0803
  341DOPC  H16R47003   5.219  11.393   4.069  0.0718  1.4559  2.9879
  341DOPC  H16S47004   5.124  11.244   4.095 -2.9851 -0.3631 -0.1594
  341DOPC  C21747005   5.073  11.395   4.229 -0.9365 -0.1431 -0.3936
  341DOPC  H17R47006   4.989  11.325   4.245 -0.6974 -0.7968 -1.8628
  341DOPC  H17S47007   5.036  11.500   4.235 -0.3879 -0.0319  2.3465
  341DOPC  C21847008   5.190  11.374   4.339 -0.0241  0.0491 -0.0132
  341DOPC  H18R47009   5.144  11.386   4.440  2.0388  0.4835  0.9290
  341DOPC  H18S47010   5.263  11.458   4.340  0.0255  0.0217 -0.7655
  341DOPC  H18T47011   5.231  11.271   4.342  0.9696  0.4375  2.3372
  341DOPC   C3347012   5.833  11.719   3.371  0.8710  0.0702 -0.3568
  341DOPC   H3X47013   5.786  11.644   3.439 -0.0527 -0.0945 -1.1639
  341DOPC   H3Y47014   5.777  11.814   3.368 -1.8893 -1.3772  1.3486
  341DOPC   C3447015   5.975  11.714   3.430 -0.0309 -0.2479 -0.2922
  341DOPC   H4X47016   6.032  11.788   3.371  1.2157 -0.3882  0.6975
  341DOPC   H4Y47017   6.013  11.609   3.431  0.3027 -0.1461 -1.1348
  341DOPC   C3547018   5.977  11.764   3.581 -0.6046  0.6929 -0.3126
  341DOPC   H5X47019   5.903  11.707   3.641 -0.7231 -1.0821 -2.0221
  341DOPC   H5Y47020   5.941  11.868   3.572 -0.8350  0.6611  0.2092
  341DOPC   C3647021   6.109  11.766   3.656 -0.3557  0.1313 -0.3857
  341DOPC   H6X47022   6.186  11.800   3.584 -2.7525 -0.5415 -3.5252
  341DOPC   H6Y47023   6.106  11.827   3.748 -1.3163 -1.4255  0.6622
  341DOPC   C3747024   6.182  11.630   3.690  0.3371 -0.1258 -0.2539
  341DOPC   H7X47025   6.117  11.561   3.748  1.8295  0.3433  2.1219
  341DOPC   H7Y47026   6.209  11.590   3.590  1.3661 -2.0497  0.7454
  341DOPC   C3847027   6.312  11.642   3.773 -0.1689  0.3258 -0.6139
  341DOPC   H8X47028   6.388  11.704   3.720  2.5387 -0.2029  2.3367
  341DOPC   H8Y47029   6.354  11.541   3.794  3.4518  2.0257  1.3122
  341DOPC   C3947030   6.299  11.700   3.915 -0.0344  0.0904  0.4343
  341DOPC   H9X47031   6.275  11.806   3.928  1.9620  0.6765 -0.2394
  341DOPC  C31047032   6.312  11.626   4.032 -0.1551  0.5580 -0.0039
  341DOPC  H10X47033   6.313  11.682   4.127  2.8108  0.0651  0.3585
  341DOPC  C31147034   6.340  11.477   4.056  0.2161 -0.0736  0.0228
  341DOPC  H11X47035   6.360  11.426   3.959  0.2638 -2.9189  1.4251
  341DOPC  H11Y47036   6.257  11.423   4.106  1.2987  0.2938  2.3267
  341DOPC  C31247037   6.471  11.453   4.138 -0.0529 -0.0359  0.4792
  341DOPC  H12X47038   6.466  11.514   4.231 -3.7753 -2.5760  2.1582
  341DOPC  H12Y47039   6.557  11.486   4.076 -1.2040 -0.2819 -1.2948
  341DOPC  C31347040   6.499  11.308   4.172  0.2615 -0.5539  0.5949
  341DOPC  H13X47041   6.420  11.273   4.243  0.4444 -1.7599  0.2320
  341DOPC  H13Y47042   6.483  11.244   4.082  0.3470 -1.4245  1.1898
  341DOPC  C31447043   6.635  11.282   4.239  0.6606 -0.5238  0.3787
  341DOPC  H14X47044   6.642  11.176   4.272 -0.1276 -0.5480  0.4865
  341DOPC  H14Y47045   6.722  11.320   4.181 -0.3022 -1.5571 -1.8387
  341DOPC  C31547046   6.633  11.351   4.380 -0.3842  0.8635 -0.5232
  341DOPC  H15X47047   6.569  11.300   4.455 -1.2305  0.8755 -1.2171
  341DOPC  H15Y47048   6.595  11.455   4.368  1.1602  1.4603 -0.4129
  341DOPC  C31647049   6.775  11.362   4.439 -0.2789  0.2151 -0.1536
  341DOPC  H16X47050   6.815  11.261   4.458  1.6514  1.3809  2.5191
  341DOPC  H16Y47051   6.843  11.407   4.364 -0.0975 -1.8454 -1.3168
  341DOPC  C31747052   6.778  11.427   4.577 -0.3630  0.3775 -0.6616
  341DOPC  H17X47053   6.741  11.531   4.563  0.0220  0.2139 -3.3723
  341DOPC  H17Y47054   6.700  11.379   4.640  1.1992  1.4021  2.2674
  341DOPC  C31847055   6.917  11.424   4.639  0.4430 -0.4547  0.3284
  341DOPC  H18X47056   6.919  11.486   4.731  0.7490 -0.1085  0.0934
  341DOPC  H18Y47057   6.942  11.316   4.651  3.1553  0.0969  0.3306
  341DOPC  H18Z47058   6.984  11.485   4.574  1.3570 -0.4895  1.2175
  342DOPC     N47059   6.448   0.902   2.540  0.0290 -0.0953 -0.3992
  342DOPC   C1247060   6.554   0.983   2.614  0.1921 -0.1694 -0.4858
  342DOPC  H12A47061   6.609   0.907   2.667  3.0231  1.3877 -0.9630
  342DOPC  H12B47062   6.502   1.046   2.684  3.2086  1.2855  0.6657
  342DOPC   C1347063   6.347   0.844   2.626 -0.0029 -0.3236 -0.0821
  342DOPC  H13A47064   6.262   0.909   2.641  0.1940 -0.1373  0.2367
  342DOPC  H13B47065   6.308   0.751   2.586 -0.9331  0.0494 -0.0629
  342DOPC  H13C47066   6.382   0.834   2.728  0.3131  2.3375  0.1205
  342DOPC   C1447067   6.523   0.800   2.468  0.4744 -0.2538  0.9680
  342DOPC  H14A47068   6.468   0.729   2.409  1.9400 -0.5099 -0.1409
  342DOPC  H14B47069   6.575   0.864   2.398 -0.3522  0.7687  1.2526
  342DOPC  H14C47070   6.585   0.738   2.531 -0.1270  0.1110  1.9479
  342DOPC   C1547071   6.374   0.993   2.447 -0.4701 -0.9989 -0.2607
  342DOPC  H15A47072   6.289   0.935   2.413  0.6073 -1.8676 -1.5685
  342DOPC  H15B47073   6.435   1.004   2.358  0.2644  0.5053  0.3853
  342DOPC  H15C47074   6.352   1.088   2.493  1.1705 -1.4585  1.6033
  342DOPC   C1147075   6.653   1.067   2.539  0.6802 -0.3189 -0.6219
  342DOPC  H11A47076   6.604   1.162   2.507  1.5127  0.7685  1.1333
  342DOPC  H11B47077   6.729   1.092   2.616  1.0632 -1.8331 -0.4862
  342DOPC     P47078   6.858   0.932   2.434  0.4344 -0.0574 -0.1589
  342DOPC   O1347079   6.949   1.005   2.339 -0.0029  0.1504 -0.7298
  342DOPC   O1447080   6.842   0.785   2.421  0.1356 -0.0615  0.4439
  342DOPC   O1247081   6.715   0.994   2.431  0.1464 -0.0566  0.2660
  342DOPC   O1147082   6.906   0.963   2.580  0.2155 -0.4185 -0.0091
  342DOPC    C147083   6.918   0.860   2.682 -0.0925  0.7158 -0.9233
  342DOPC    HA47084   7.011   0.800   2.668 -0.7517 -0.0938 -1.9676
  342DOPC    HB47085   6.834   0.788   2.671  0.9011 -0.5302 -0.5524
  342DOPC    C247086   6.918   0.912   2.827  0.4773 -0.2059 -0.4091
  342DOPC    HS47087   6.821   0.967   2.830  0.3204 -0.4573 -0.8576
  342DOPC   O2147088   7.033   0.997   2.847 -0.3118 -0.3733  0.0513
  342DOPC   C2147089   7.009   1.096   2.934  0.0958  0.2261  0.0745
  342DOPC   O2247090   6.898   1.135   2.968 -0.0461 -0.0323 -0.1675
  342DOPC   C2247091   7.138   1.160   2.983  0.0242 -0.1065 -0.8079
  342DOPC   H2R47092   7.174   1.228   2.903  0.0810  0.7401 -0.0723
  342DOPC   H2S47093   7.211   1.076   2.993 -0.8940 -0.7065  1.4948
  342DOPC    C347094   6.902   0.800   2.936 -0.6144 -0.1749 -0.1285
  342DOPC    HX47095   6.976   0.730   2.892  1.1661  2.0948 -0.9286
  342DOPC    HY47096   6.808   0.741   2.935  0.0092 -1.2857  1.6118
  342DOPC   O3147097   6.919   0.827   3.081 -0.4267  0.0747  1.1541
  342DOPC   C3147098   6.821   0.868   3.161 -0.0052 -0.2100  0.6599
  342DOPC   O3247099   6.707   0.893   3.126  0.2763 -0.2828 -0.3659
  342DOPC   C3247100   6.886   0.883   3.299  0.6123 -1.0240  0.1042
  342DOPC   H2X47101   6.913   0.783   3.338 -2.0452 -1.2490  1.6656
  342DOPC   H2Y47102   6.972   0.949   3.278 -0.3408  0.1479 -0.2219
  342DOPC   C2347103   7.112   1.234   3.123  0.5395 -0.2073  0.2949
  342DOPC   H3R47104   7.087   1.158   3.201  0.3989 -1.2262 -0.7162
  342DOPC   H3S47105   7.028   1.306   3.112  2.4057  1.9116 -0.7312
  342DOPC   C2447106   7.236   1.323   3.164  0.3391  0.1285  1.0030
  342DOPC   H4R47107   7.208   1.362   3.264 -1.8184  0.2322  0.4112
  342DOPC   H4S47108   7.237   1.413   3.099  0.1117 -0.3383  0.3395
  342DOPC   C2547109   7.371   1.256   3.165 -0.5841  0.0805 -0.1709
  342DOPC   H5R47110   7.395   1.219   3.063 -0.5454 -0.3784  0.0035
  342DOPC   H5S47111   7.369   1.173   3.238 -2.8203  1.0401  0.9570
  342DOPC   C2647112   7.479   1.352   3.221  0.0319  0.4688 -0.6323
  342DOPC   H6R47113   7.506   1.422   3.139  2.2021  2.1945  1.4362
  342DOPC   H6S47114   7.560   1.276   3.230 -1.3767 -1.0416 -0.3184
  342DOPC   C2747115   7.450   1.424   3.351  0.0352 -0.8951 -0.4597
  342DOPC   H7R47116   7.415   1.357   3.432 -2.7873 -1.4269 -1.9697
  342DOPC   H7S47117   7.378   1.509   3.351  0.0877 -0.8057  1.5266
  342DOPC   C2847118   7.580   1.489   3.411  0.1258  0.6772  0.4409
  342DOPC   H8R47119   7.615   1.566   3.338  1.8695 -1.6161 -1.3134
  342DOPC   H8S47120   7.659   1.411   3.418 -0.7909 -0.2193  0.8684
  342DOPC   C2947121   7.551   1.542   3.554  0.0495  0.1320  0.2459
  342DOPC   H9R47122   7.451   1.588   3.557  0.5323  1.4564 -1.6411
  342DOPC  C21047123   7.612   1.515   3.668  0.3234 -0.0397 -0.0438
  342DOPC  H10R47124   7.563   1.561   3.755  3.6813  4.2454 -0.0937
  342DOPC  C21147125   7.728   1.434   3.693 -0.7667  0.4231  0.1366
  342DOPC  H11R47126   7.804   1.456   3.615 -1.1977  0.7728 -0.1846
  342DOPC  H11S47127   7.706   1.326   3.677  1.3827  0.2132 -2.0720
  342DOPC  C21247128   7.795   1.445   3.827  0.1396 -0.3089  0.0610
  342DOPC  H12R47129   7.717   1.426   3.904  2.1766  0.6076  2.5129
  342DOPC  H12S47130   7.833   1.549   3.832 -2.9768  0.9950 -0.6656
  342DOPC  C21347131   7.916   1.354   3.851  0.2899  0.7193 -0.1994
  342DOPC  H13R47132   8.004   1.394   3.796  1.3306  0.4392  1.2115
  342DOPC  H13S47133   7.896   1.253   3.807  2.0107 -0.6148  1.8697
  342DOPC  C21447134   7.955   1.335   3.994 -0.5080  0.1589 -0.8654
  342DOPC  H14R47135   8.035   1.257   4.001 -0.3306  0.2271 -1.8878
  342DOPC  H14S47136   7.870   1.308   4.059  1.3218  1.3726  2.2529
  342DOPC  C21547137   8.007   1.461   4.063  0.7414 -0.4347  0.2295
  342DOPC  H15R47138   7.914   1.520   4.079  0.8458 -0.6369  1.6721
  342DOPC  H15S47139   8.070   1.523   3.995  1.1451 -0.0735  0.9150
  342DOPC  C21647140   8.095   1.438   4.191 -0.0744 -0.2983  0.9110
  342DOPC  H16R47141   8.158   1.350   4.166  1.9768  1.4053 -0.3190
  342DOPC  H16S47142   8.010   1.414   4.259 -0.6797  2.0581  1.0943
  342DOPC  C21747143   8.182   1.555   4.224  0.0376 -1.0069  0.4092
  342DOPC  H17R47144   8.264   1.583   4.154 -0.4476 -0.5838  0.0078
  342DOPC  H17S47145   8.232   1.534   4.321 -0.3781 -0.2951  0.7838
  342DOPC  C21847146   8.095   1.684   4.255 -0.3406  0.2744 -0.0210
  342DOPC  H18R47147   8.037   1.704   4.162  0.7378  0.7580 -0.6069
  342DOPC  H18S47148   8.156   1.775   4.274  1.4440 -1.0502  0.8622
  342DOPC  H18T47149   8.027   1.659   4.339  0.8524 -3.0769  0.0784
  342DOPC   C3347150   6.800   0.968   3.397  0.3439  0.5502 -0.1557
  342DOPC   H3X47151   6.835   0.961   3.502  0.1256  0.0976 -0.1087
  342DOPC   H3Y47152   6.699   0.922   3.407 -0.1399  1.5294 -0.3915
  342DOPC   C3447153   6.798   1.116   3.355 -0.0483 -0.0441 -0.2615
  342DOPC   H4X47154   6.736   1.137   3.266  0.6206 -0.7732 -0.9119
  342DOPC   H4Y47155   6.901   1.156   3.344  0.6141 -1.9415 -1.4131
  342DOPC   C3547156   6.749   1.201   3.468  0.8059 -0.2211 -0.2066
  342DOPC   H5X47157   6.797   1.185   3.568 -2.2248  0.2539  1.4293
  342DOPC   H5Y47158   6.643   1.172   3.484  0.9816  0.0411  1.7646
  342DOPC   C3647159   6.758   1.345   3.425 -0.0697  0.0617  0.3566
  342DOPC   H6X47160   6.747   1.356   3.315  0.5991  0.3432  0.3096
  342DOPC   H6Y47161   6.679   1.403   3.477  0.2744  1.9094 -1.0430
  342DOPC   C3747162   6.882   1.426   3.470 -0.4431  0.0564  0.3481
  342DOPC   H7X47163   6.969   1.358   3.459 -0.8397 -0.4529  0.3535
  342DOPC   H7Y47164   6.892   1.518   3.409 -1.0019 -0.2930 -0.2718
  342DOPC   C3847165   6.869   1.478   3.615 -0.2195  0.1068  0.0358
  342DOPC   H8X47166   6.855   1.393   3.685 -1.2741  0.8647  0.7829
  342DOPC   H8Y47167   6.777   1.540   3.623 -0.1980  0.3591 -1.3546
  342DOPC   C3947168   6.989   1.564   3.660  0.2881  0.5390  0.4200
  342DOPC   H9X47169   7.084   1.547   3.607 -0.3660 -1.4733 -0.1907
  342DOPC  C31047170   6.980   1.665   3.747  0.1689  0.0764 -0.2850
  342DOPC  H10X47171   7.068   1.725   3.773 -1.6784  3.0913 -0.5697
  342DOPC  C31147172   6.850   1.719   3.817 -0.0463  0.4026  0.7679
  342DOPC  H11X47173   6.759   1.655   3.818 -0.8061  1.4091 -0.7595
  342DOPC  H11Y47174   6.814   1.800   3.749  0.2147 -0.3872 -0.3426
  342DOPC  C31247175   6.870   1.785   3.958  0.4952  0.0899 -0.9335
  342DOPC  H12X47176   6.948   1.862   3.947  2.6614 -1.8345  0.2047
  342DOPC  H12Y47177   6.910   1.711   4.030  0.8949 -0.4687 -1.7182
  342DOPC  C31347178   6.738   1.845   4.008 -0.1460  0.4451  0.5468
  342DOPC  H13X47179   6.769   1.935   4.065 -0.3877  0.1769  1.1059
  342DOPC  H13Y47180   6.684   1.884   3.919 -0.3997  1.6467  1.2113
  342DOPC  C31447181   6.661   1.738   4.089  0.2154  0.1942  0.5503
  342DOPC  H14X47182   6.645   1.642   4.035  0.4594 -0.5241  1.7315
  342DOPC  H14Y47183   6.717   1.705   4.179 -0.6673 -2.4623  0.2341
  342DOPC  C31547184   6.532   1.786   4.152  0.3715  0.2273  0.4422
  342DOPC  H15X47185   6.457   1.801   4.071 -0.8499 -2.0259  1.0663
  342DOPC  H15Y47186   6.553   1.886   4.194 -1.5128  0.9054 -0.1101
  342DOPC  C31647187   6.478   1.690   4.256 -0.4766  0.7527 -0.0955
  342DOPC  H16X47188   6.466   1.591   4.209 -0.6369  1.3292 -1.3115
  342DOPC  H16Y47189   6.554   1.667   4.334 -1.2624  1.5172  0.9441
  342DOPC  C31747190   6.342   1.714   4.329  0.3933 -0.0857 -0.0026
  342DOPC  H17X47191   6.331   1.822   4.351  0.1003 -0.5274  2.3861
  342DOPC  H17Y47192   6.259   1.692   4.259 -0.2513  0.7614  0.4774
  342DOPC  C31847193   6.323   1.626   4.453  0.1070  0.6294 -0.4153
  342DOPC  H18X47194   6.416   1.629   4.514  2.0062 -2.5141 -2.8493
  342DOPC  H18Y47195   6.231   1.666   4.501  0.5434  1.6581 -0.4023
  342DOPC  H18Z47196   6.310   1.522   4.418  2.0257 -0.7256  2.4629
  343DOPC     N47197   6.062   5.336   2.126 -0.2468  0.1425 -0.8024
  343DOPC   C1247198   5.909   5.356   2.128  0.3254  0.0074 -0.7497
  343DOPC  H12A47199   5.870   5.379   2.030  0.9100 -0.5727 -1.1211
  343DOPC  H12B47200   5.896   5.450   2.180 -2.8140 -0.0532 -1.2340
  343DOPC   C1347201   6.118   5.454   2.051 -0.6551  0.1663 -0.3624
  343DOPC  H13A47202   6.081   5.455   1.950 -0.2949  0.5125 -0.4913
  343DOPC  H13B47203   6.090   5.551   2.090 -0.6711  0.0047  0.0345
  343DOPC  H13C47204   6.225   5.450   2.060 -0.6566 -0.9888 -0.6652
  343DOPC   C1447205   6.099   5.205   2.053 -0.1219  0.2470  0.0382
  343DOPC  H14A47206   6.077   5.211   1.947 -0.5853 -1.4508  0.0101
  343DOPC  H14B47207   6.200   5.175   2.076 -0.5956 -0.5748  1.1227
  343DOPC  H14C47208   6.029   5.128   2.083 -1.4215  0.6687 -1.7094
  343DOPC   C1547209   6.116   5.333   2.264 -0.4155  0.5461 -0.0050
  343DOPC  H15A47210   6.089   5.236   2.304 -0.4654  0.4571 -0.2502
  343DOPC  H15B47211   6.082   5.412   2.329 -0.6017  0.7952 -0.3984
  343DOPC  H15C47212   6.224   5.332   2.264 -0.3920  1.9938 -0.1277
  343DOPC   C1147213   5.826   5.250   2.192 -0.2710 -0.1214  0.7111
  343DOPC  H11A47214   5.859   5.233   2.296 -1.8289  1.5639  1.5332
  343DOPC  H11B47215   5.722   5.287   2.209  0.1630  0.6917  1.6884
  343DOPC     P47216   5.734   5.086   2.005  0.3232 -0.2001 -0.0198
  343DOPC   O1347217   5.780   4.960   1.937 -0.4035 -0.1332 -0.2771
  343DOPC   O1447218   5.702   5.200   1.918 -0.1086  0.3799  0.3592
  343DOPC   O1247219   5.829   5.124   2.119 -0.0472  0.0399 -0.4814
  343DOPC   O1147220   5.593   5.060   2.082  0.4966  0.0806  0.1131
  343DOPC    C147221   5.569   4.951   2.165 -0.5385  1.4985 -0.1875
  343DOPC    HA47222   5.660   4.892   2.191 -0.8193  0.8317 -0.6773
  343DOPC    HB47223   5.492   4.884   2.122 -0.1930  0.2230  1.0660
  343DOPC    C247224   5.539   4.985   2.313 -0.1194 -0.5961  0.4474
  343DOPC    HS47225   5.432   5.012   2.298 -0.7740 -3.0060  0.2585
  343DOPC   O2147226   5.626   5.094   2.359 -0.3609  0.4428 -0.6176
  343DOPC   C2147227   5.561   5.169   2.444  0.2888  0.7163  0.4754
  343DOPC   O2247228   5.442   5.193   2.452 -0.1373 -0.9371 -0.1458
  343DOPC   C2247229   5.655   5.230   2.546  0.2908 -0.2602 -0.2781
  343DOPC   H2R47230   5.748   5.269   2.499  0.5746  0.7296  1.0555
  343DOPC   H2S47231   5.675   5.141   2.610 -0.3961 -0.0613  0.2296
  343DOPC    C347232   5.541   4.864   2.416  0.0169 -0.3288 -1.0933
  343DOPC    HX47233   5.647   4.836   2.435  0.2175 -0.1119 -1.8264
  343DOPC    HY47234   5.488   4.776   2.374 -0.5437 -0.9877  0.9154
  343DOPC   O3147235   5.483   4.903   2.538  0.0034  0.4293  0.3386
  343DOPC   C3147236   5.348   4.896   2.532 -0.4515 -0.6848  0.3482
  343DOPC   O3247237   5.286   4.864   2.434 -0.0653 -0.3244  0.5818
  343DOPC   C3247238   5.287   4.959   2.654 -0.1930  0.1220 -0.6130
  343DOPC   H2X47239   5.262   5.063   2.624  0.8651  0.7379  0.5667
  343DOPC   H2Y47240   5.189   4.909   2.670  0.7061 -1.8754 -1.0346
  343DOPC   C2347241   5.581   5.333   2.628  0.3457  0.1786 -0.2943
  343DOPC   H3R47242   5.488   5.292   2.672  0.9932 -0.7923  0.2202
  343DOPC   H3S47243   5.556   5.418   2.561  0.1004 -1.2654 -2.0877
  343DOPC   C2447244   5.651   5.397   2.748 -0.0863 -0.3488  0.0256
  343DOPC   H4R47245   5.602   5.493   2.774 -0.6193 -0.3956 -0.7779
  343DOPC   H4S47246   5.751   5.423   2.709 -0.1825  0.1183  0.0936
  343DOPC   C2547247   5.663   5.309   2.872 -0.3228  0.0079  0.3722
  343DOPC   H5R47248   5.639   5.202   2.855  0.8317 -0.0754 -0.8823
  343DOPC   H5S47249   5.588   5.332   2.951 -1.4760  0.0979 -0.7317
  343DOPC   C2647250   5.805   5.306   2.935  0.7803  0.2926 -0.3392
  343DOPC   H6R47251   5.844   5.401   2.978  1.5802 -0.8031  1.4581
  343DOPC   H6S47252   5.874   5.285   2.851  0.3188  0.1189 -0.6779
  343DOPC   C2747253   5.811   5.202   3.043 -0.0188 -0.5109  1.1460
  343DOPC   H7R47254   5.784   5.103   3.000 -3.0962  0.2886  0.9796
  343DOPC   H7S47255   5.719   5.223   3.101 -2.0796 -0.9750 -1.7185
  343DOPC   C2847256   5.942   5.183   3.120  0.8074  0.0987  0.5375
  343DOPC   H8R47257   5.903   5.127   3.208 -1.4934  0.9824  0.1355
  343DOPC   H8S47258   5.994   5.274   3.156 -0.9106  0.5290  2.0892
  343DOPC   C2947259   6.037   5.098   3.034 -0.7554  0.0563 -0.9696
  343DOPC   H9R47260   6.054   5.144   2.935 -4.0147  0.1956 -1.5758
  343DOPC  C21047261   6.096   4.985   3.071 -0.6832  0.0189 -0.0136
  343DOPC  H10R47262   6.176   4.936   3.013 -1.8900 -2.5699  0.3799
  343DOPC  C21147263   6.082   4.918   3.202 -0.0101 -0.3475  0.4709
  343DOPC  H11R47264   5.977   4.908   3.238 -0.2477 -2.2105 -0.6541
  343DOPC  H11S47265   6.136   4.978   3.279  0.3216 -3.2352  2.6469
  343DOPC  C21247266   6.163   4.788   3.196  0.0226 -0.2214  0.0484
  343DOPC  H12R47267   6.270   4.808   3.176  0.5617 -1.6965  1.2843
  343DOPC  H12S47268   6.117   4.733   3.110 -0.8117  3.2015 -1.8857
  343DOPC  C21347269   6.146   4.697   3.321 -0.6686  0.4882  0.6258
  343DOPC  H13R47270   6.041   4.701   3.355 -1.5073  1.6374 -1.8348
  343DOPC  H13S47271   6.208   4.756   3.393 -0.4691  0.2998  0.6116
  343DOPC  C21447272   6.195   4.554   3.298  0.6726  0.5835 -0.2523
  343DOPC  H14R47273   6.173   4.497   3.391 -2.9306 -1.5372 -2.1895
  343DOPC  H14S47274   6.306   4.557   3.293  0.6299  0.4224 -3.0250
  343DOPC  C21547275   6.153   4.476   3.172 -0.5578 -0.2598 -0.1920
  343DOPC  H15R47276   6.207   4.520   3.086  0.1725 -0.3196  0.2322
  343DOPC  H15S47277   6.046   4.491   3.145  0.0101  0.2630 -2.3570
  343DOPC  C21647278   6.202   4.326   3.169  0.7182 -0.3519 -0.7345
  343DOPC  H16R47279   6.307   4.328   3.204  0.0702 -1.3257  1.4772
  343DOPC  H16S47280   6.187   4.290   3.065 -0.5448 -2.1138  0.0047
  343DOPC  C21747281   6.125   4.239   3.270 -0.1463 -0.0310  0.1679
  343DOPC  H17R47282   6.017   4.263   3.258 -0.9991 -3.5156 -0.2953
  343DOPC  H17S47283   6.169   4.262   3.370  0.4543 -0.9669  0.1324
  343DOPC  C21847284   6.134   4.091   3.230  0.1922  0.6553 -0.9776
  343DOPC  H18R47285   6.109   4.072   3.124  3.2585 -1.0255 -1.5019
  343DOPC  H18S47286   6.075   4.026   3.298  0.9525  1.9981  1.1013
  343DOPC  H18T47287   6.235   4.046   3.241 -0.3874 -0.3473  0.5832
  343DOPC   C3347288   5.377   4.960   2.787  0.4545 -0.1991 -0.0818
  343DOPC   H3X47289   5.476   4.999   2.753  0.6796 -1.1606 -0.5767
  343DOPC   H3Y47290   5.388   4.855   2.820  1.0052 -0.1522 -0.1003
  343DOPC   C3447291   5.318   5.044   2.901  0.4045 -0.4262  0.1099
  343DOPC   H4X47292   5.211   5.016   2.910 -0.1371  1.7178  0.8985
  343DOPC   H4Y47293   5.314   5.153   2.879 -0.7827 -0.0667  1.9582
  343DOPC   C3547294   5.387   5.014   3.037 -0.1638 -0.0789  0.0448
  343DOPC   H5X47295   5.480   5.074   3.041  0.7002 -1.4041  3.4554
  343DOPC   H5Y47296   5.412   4.905   3.034 -0.3316 -0.1437  0.8809
  343DOPC   C3647297   5.283   5.042   3.151  0.0204 -0.1402 -0.3948
  343DOPC   H6X47298   5.227   5.133   3.121  0.6341  0.0301 -1.0448
  343DOPC   H6Y47299   5.207   4.963   3.170 -0.4278 -0.0586 -1.7906
  343DOPC   C3747300   5.356   5.078   3.280  0.1061 -0.4204 -0.4782
  343DOPC   H7X47301   5.424   4.992   3.296  1.3787  0.4378 -1.0860
  343DOPC   H7Y47302   5.414   5.168   3.251 -2.1033  0.4757 -2.4240
  343DOPC   C3847303   5.271   5.100   3.394  0.6065 -0.6066 -1.0129
  343DOPC   H8X47304   5.205   5.189   3.389 -0.4398 -1.3071 -0.1965
  343DOPC   H8Y47305   5.336   5.142   3.474 -0.5131  0.2297 -0.5093
  343DOPC   C3947306   5.203   4.986   3.467  1.0098 -0.5072  0.7849
  343DOPC   H9X47307   5.266   4.897   3.482  1.0156 -0.3036  2.1259
  343DOPC  C31047308   5.075   4.969   3.512  0.4071  0.7265 -0.0249
  343DOPC  H10X47309   5.060   4.883   3.579 -0.3083 -1.1841 -2.5008
  343DOPC  C31147310   4.957   5.063   3.499  0.1467 -0.5670 -0.0531
  343DOPC  H11X47311   4.963   5.153   3.435 -2.1855  1.0780  1.8710
  343DOPC  H11Y47312   4.935   5.114   3.595  0.9219 -2.7360  1.3611
  343DOPC  C31247313   4.819   4.996   3.458  0.1907  0.4588 -0.0306
  343DOPC  H12X47314   4.808   4.912   3.530  1.0709 -1.2408 -1.7711
  343DOPC  H12Y47315   4.842   4.951   3.358  0.6087  1.9842 -0.6505
  343DOPC  C31347316   4.704   5.097   3.447 -0.1504  0.8014 -0.3376
  343DOPC  H13X47317   4.711   5.147   3.348  2.0424 -2.7052 -2.1551
  343DOPC  H13Y47318   4.610   5.039   3.450  0.7922 -0.8900 -1.6145
  343DOPC  C31447319   4.677   5.182   3.565 -0.3385 -0.2822  0.0385
  343DOPC  H14X47320   4.707   5.129   3.658  3.1610 -0.2144 -0.9382
  343DOPC  H14Y47321   4.745   5.269   3.564 -1.9299  1.0090  0.2311
  343DOPC  C31547322   4.534   5.234   3.585 -0.2045  0.5927  0.0129
  343DOPC  H15X47323   4.526   5.274   3.689 -0.5397 -0.0353  0.2355
  343DOPC  H15Y47324   4.458   5.156   3.565  0.4323 -0.3915  1.2866
  343DOPC  C31647325   4.497   5.350   3.484  0.2637  0.2845 -0.3028
  343DOPC  H16X47326   4.555   5.438   3.517  0.1148  0.8802 -1.5695
  343DOPC  H16Y47327   4.534   5.317   3.384  2.7175  0.1970  0.5770
  343DOPC  C31747328   4.344   5.365   3.473 -0.0785 -0.4295  0.3415
  343DOPC  H17X47329   4.297   5.287   3.409  0.2873  1.3778 -2.2905
  343DOPC  H17Y47330   4.313   5.358   3.579  1.2680 -0.6167  0.7472
  343DOPC  C31847331   4.293   5.500   3.421  0.1839 -0.1364  1.1175
  343DOPC  H18X47332   4.350   5.513   3.327  0.3305 -2.3929  0.8447
  343DOPC  H18Y47333   4.189   5.496   3.382  0.5227 -1.8947  0.3266
  343DOPC  H18Z47334   4.302   5.589   3.488  0.0149  1.2130 -0.5659
  344DOPC     N47335  10.681   2.526   2.325 -0.6200 -0.4215  0.4710
  344DOPC   C1247336  10.711   2.465   2.184 -0.6903  0.6464  1.1801
  344DOPC  H12A47337  10.704   2.549   2.117 -1.7370  0.9982  1.7199
  344DOPC  H12B47338  10.629   2.399   2.162 -1.2225  1.7637 -0.2605
  344DOPC   C1347339  10.680   2.425   2.437  0.3539 -0.3567 -0.0314
  344DOPC  H13A47340  10.681   2.475   2.533 -0.9298  0.0053 -0.1871
  344DOPC  H13B47341  10.587   2.372   2.424 -0.0114  0.4783 -0.9865
  344DOPC  H13C47342  10.762   2.355   2.432 -0.1674 -0.9712 -0.0926
  344DOPC   C1447343  10.545   2.596   2.317 -0.7581  0.0590  0.1709
  344DOPC  H14A47344  10.522   2.631   2.218 -1.8770 -2.0357 -0.3772
  344DOPC  H14B47345  10.464   2.530   2.342 -0.2787 -1.1107 -1.2296
  344DOPC  H14C47346  10.537   2.672   2.394  1.5958  0.9185 -0.3462
  344DOPC   C1547347  10.785   2.633   2.360  0.0849  0.0099 -0.0377
  344DOPC  H15A47348  10.887   2.596   2.358  0.7153  1.6354  0.3955
  344DOPC  H15B47349  10.760   2.668   2.459 -1.4407 -0.0150 -0.3918
  344DOPC  H15C47350  10.789   2.709   2.283 -1.7794 -0.6755 -0.8738
  344DOPC   C1147351  10.848   2.397   2.179 -0.1144  0.3660  0.7164
  344DOPC  H11A47352  10.926   2.465   2.220  0.5923  0.8704 -1.3510
  344DOPC  H11B47353  10.841   2.311   2.249 -0.0892  1.0658  1.5919
  344DOPC     P47354  11.005   2.428   1.964 -0.0318 -0.1152  0.1435
  344DOPC   O1347355  10.989   2.572   1.973 -0.0803 -0.3943  1.5387
  344DOPC   O1447356  11.019   2.363   1.831 -0.3390 -0.6050 -0.4145
  344DOPC   O1247357  10.884   2.358   2.043  0.0792  0.2675 -0.3787
  344DOPC   O1147358  11.132   2.400   2.056 -0.2439  0.5991  0.4619
  344DOPC    C147359  11.177   2.270   2.090  0.0840  1.1901 -0.4582
  344DOPC    HA47360  11.287   2.261   2.079  0.0218 -0.2243 -0.1746
  344DOPC    HB47361  11.141   2.194   2.016 -0.6781 -0.6783  1.7095
  344DOPC    C247362  11.140   2.217   2.235 -0.1060  0.5925  0.2274
  344DOPC    HS47363  11.032   2.193   2.230 -0.8676  3.5852  0.3523
  344DOPC   O2147364  11.154   2.330   2.327 -0.1206 -0.4552  0.1560
  344DOPC   C2147365  11.103   2.327   2.446  0.4844 -0.0192  0.5082
  344DOPC   O2247366  11.010   2.248   2.478  0.2025  0.2419 -0.1409
  344DOPC   C2247367  11.147   2.442   2.531  0.2585  0.5389 -0.2551
  344DOPC   H2R47368  11.160   2.536   2.474  2.2625 -0.6087 -1.8458
  344DOPC   H2S47369  11.252   2.413   2.556  0.2727 -0.0219 -0.9379
  344DOPC    C347370  11.224   2.089   2.276  0.0887 -0.3265 -0.0890
  344DOPC    HX47371  11.328   2.123   2.255 -0.8784  2.3550 -0.9258
  344DOPC    HY47372  11.195   2.011   2.203  1.7571 -0.6030 -0.5042
  344DOPC   O3147373  11.217   2.061   2.421  0.0200 -0.3516  0.1674
  344DOPC   C3147374  11.120   1.971   2.455  0.0834  0.0250  0.3237
  344DOPC   O3247375  11.054   1.912   2.371  1.1036 -0.3966 -0.5244
  344DOPC   C3247376  11.108   1.963   2.604  0.1561  0.4253  0.0332
  344DOPC   H2X47377  11.208   1.945   2.648 -0.1736 -2.0189 -0.0761
  344DOPC   H2Y47378  11.074   2.062   2.641  0.4407  1.0051 -1.1830
  344DOPC   C2347379  11.072   2.456   2.666  0.5439  0.7581  0.1321
  344DOPC   H3R47380  10.968   2.488   2.645  0.3630  1.1709  1.5318
  344DOPC   H3S47381  11.115   2.545   2.718  1.8964  0.3525 -0.2357
  344DOPC   C2447382  11.085   2.328   2.758  0.0295  0.1874 -0.6456
  344DOPC   H4R47383  11.183   2.282   2.733 -0.6787 -0.6268 -2.0801
  344DOPC   H4S47384  11.002   2.256   2.741  0.0197 -0.1629  0.8162
  344DOPC   C2547385  11.071   2.356   2.907 -0.3433 -0.0859 -0.7859
  344DOPC   H5R47386  10.975   2.409   2.919 -0.5923 -0.8358  0.8451
  344DOPC   H5S47387  11.144   2.429   2.950 -1.3473  0.3114  0.3099
  344DOPC   C2647388  11.071   2.227   2.977  0.6153 -0.2340  0.2395
  344DOPC   H6R47389  11.162   2.176   2.940  1.4969  1.3190  0.1477
  344DOPC   H6S47390  10.988   2.164   2.939  0.5727 -0.0346 -0.0007
  344DOPC   C2747391  11.068   2.223   3.124 -0.3558  0.9023 -0.5316
  344DOPC   H7R47392  11.158   2.274   3.165 -0.0323 -0.2979  0.2864
  344DOPC   H7S47393  11.069   2.113   3.139  1.8821  0.7933 -1.2482
  344DOPC   C2847394  10.945   2.277   3.197 -0.3401 -0.1381 -0.4152
  344DOPC   H8R47395  10.857   2.250   3.135 -1.0672 -1.9351  1.2676
  344DOPC   H8S47396  10.939   2.388   3.206 -4.2950 -0.1440 -1.2780
  344DOPC   C2947397  10.910   2.200   3.328 -0.4915  0.5327  0.1353
  344DOPC   H9R47398  10.931   2.092   3.335 -0.8533  0.3168 -1.6792
  344DOPC  C21047399  10.858   2.265   3.436  0.2595 -0.0716  0.3419
  344DOPC  H10R47400  10.839   2.212   3.531  1.2171 -1.5364 -0.2476
  344DOPC  C21147401  10.841   2.411   3.452  0.0640 -0.9034 -0.2607
  344DOPC  H11R47402  10.731   2.427   3.453 -0.2648 -2.8972  0.2200
  344DOPC  H11S47403  10.877   2.479   3.372 -0.3082  0.8940  1.0540
  344DOPC  C21247404  10.894   2.467   3.584 -0.7223  0.0992 -0.0133
  344DOPC  H12R47405  10.827   2.436   3.667 -0.4199 -0.2364  0.1077
  344DOPC  H12S47406  10.889   2.578   3.572  0.7655  0.1969  0.0562
  344DOPC  C21347407  11.037   2.413   3.611  0.5186 -0.0622  0.0184
  344DOPC  H13R47408  11.114   2.439   3.535  0.1839 -0.2294 -0.3824
  344DOPC  H13S47409  11.031   2.303   3.600 -1.2500  0.0421 -0.4010
  344DOPC  C21447410  11.089   2.433   3.753 -0.5167  0.4590  0.1763
  344DOPC  H14R47411  11.191   2.391   3.747 -0.8759 -0.4578  0.2137
  344DOPC  H14S47412  11.027   2.369   3.821 -1.1567 -1.2403 -1.9104
  344DOPC  C21547413  11.104   2.576   3.805  0.4866 -0.3980 -0.4455
  344DOPC  H15R47414  11.131   2.634   3.714  0.4534 -1.3530 -1.0814
  344DOPC  H15S47415  11.197   2.573   3.867  0.8588  1.2857 -0.8760
  344DOPC  C21647416  10.983   2.636   3.886  0.3785 -1.1510  0.4148
  344DOPC  H16R47417  10.905   2.630   3.807  0.8328  0.7502 -0.2293
  344DOPC  H16S47418  11.007   2.742   3.906  3.4948 -1.6520 -0.1409
  344DOPC  C21747419  10.940   2.565   4.007  0.7256 -0.2257  0.3652
  344DOPC  H17R47420  10.969   2.459   3.995  0.9050 -0.0923 -0.3902
  344DOPC  H17S47421  10.830   2.573   4.017  0.6536  0.5210 -0.8956
  344DOPC  C21847422  11.002   2.625   4.136 -0.2077 -0.4417  0.3080
  344DOPC  H18R47423  11.112   2.607   4.141 -0.4382 -1.9638  0.1510
  344DOPC  H18S47424  10.960   2.577   4.227  1.2583  2.3077  2.6041
  344DOPC  H18T47425  10.992   2.736   4.134  1.2729 -0.2820 -1.4952
  344DOPC   C3347426  11.006   1.854   2.656  0.0827 -0.6639  0.4935
  344DOPC   H3X47427  11.028   1.755   2.610  0.7194 -0.7055  0.8685
  344DOPC   H3Y47428  10.908   1.893   2.621  0.9590  0.5106 -0.7708
  344DOPC   C3447429  11.003   1.854   2.807 -0.8581  0.5992 -0.1184
  344DOPC   H4X47430  11.012   1.957   2.850 -0.3362  0.2734  0.5761
  344DOPC   H4Y47431  11.091   1.791   2.832 -2.1133 -1.1011  0.2280
  344DOPC   C3547432  10.883   1.781   2.860 -0.2184 -0.4980  0.2212
  344DOPC   H5X47433  10.879   1.675   2.828  2.0566 -0.8400  0.9095
  344DOPC   H5Y47434  10.789   1.833   2.830 -1.1000 -0.7356  2.3792
  344DOPC   C3647435  10.875   1.785   3.014  0.2587 -0.4434 -0.3396
  344DOPC   H6X47436  10.961   1.736   3.065  0.0943  0.7954  1.1686
  344DOPC   H6Y47437  10.867   1.889   3.051 -1.5980  0.0015 -1.8503
  344DOPC   C3747438  10.752   1.715   3.070  0.1004  0.2107 -0.2247
  344DOPC   H7X47439  10.664   1.779   3.048 -0.6124  0.5300  3.1166
  344DOPC   H7Y47440  10.741   1.623   3.007  0.6284 -0.6998  0.9683
  344DOPC   C3847441  10.745   1.675   3.212  0.4668  0.9734 -0.8280
  344DOPC   H8X47442  10.743   1.765   3.276  2.3194  0.5239 -0.0721
  344DOPC   H8Y47443  10.834   1.620   3.248 -0.0919  1.0948  0.7768
  344DOPC   C3947444  10.623   1.588   3.238 -0.2529 -0.2922 -0.1504
  344DOPC   H9X47445  10.560   1.565   3.151 -1.2232  1.2779  0.0982
  344DOPC  C31047446  10.572   1.560   3.358 -0.4675  0.4325 -0.3730
  344DOPC  H10X47447  10.497   1.479   3.360  0.2814 -0.2797  1.3299
  344DOPC  C31147448  10.629   1.580   3.499 -0.3927 -0.1055  0.1949
  344DOPC  H11X47449  10.555   1.636   3.560  0.4697 -0.1815  1.3299
  344DOPC  H11Y47450  10.718   1.645   3.492 -1.1169  0.7948 -1.4202
  344DOPC  C31247451  10.655   1.451   3.578  0.3542  0.8683 -0.1730
  344DOPC  H12X47452  10.704   1.365   3.527 -0.5449  0.6965 -0.7641
  344DOPC  H12Y47453  10.556   1.412   3.611  0.5271  1.0921  0.6451
  344DOPC  C31347454  10.736   1.481   3.702 -0.3657 -0.2758  0.3878
  344DOPC  H13X47455  10.838   1.513   3.674 -0.6438  1.6271  1.3943
  344DOPC  H13Y47456  10.699   1.566   3.763  0.7194  0.5921 -0.1213
  344DOPC  C31447457  10.731   1.368   3.806 -0.1408  0.4617 -0.8373
  344DOPC  H14X47458  10.628   1.374   3.849  0.4816 -0.1861  0.8126
  344DOPC  H14Y47459  10.745   1.269   3.757 -2.1790 -0.0499 -0.5000
  344DOPC  C31547460  10.835   1.379   3.918  0.0240 -0.1522 -0.2879
  344DOPC  H15X47461  10.829   1.482   3.961  2.7060 -0.1774  0.3184
  344DOPC  H15Y47462  10.939   1.379   3.879  0.2226  2.0278  0.1190
  344DOPC  C31647463  10.820   1.277   4.029 -0.7491  0.0594 -0.6819
  344DOPC  H16X47464  10.713   1.270   4.056 -0.6115  0.6119  0.0672
  344DOPC  H16Y47465  10.852   1.178   3.990 -1.7719 -0.1459 -1.0212
  344DOPC  C31747466  10.907   1.315   4.155  0.4010  0.3609  0.0777
  344DOPC  H17X47467  11.006   1.273   4.131 -0.3984 -1.6996  0.1999
  344DOPC  H17Y47468  10.918   1.424   4.177  0.4289  0.6507 -1.2439
  344DOPC  C31847469  10.873   1.244   4.289 -0.2549 -0.4438  0.1663
  344DOPC  H18X47470  10.963   1.250   4.354  0.6946  1.8175 -1.2344
  344DOPC  H18Y47471  10.782   1.289   4.334  0.0463 -0.4140  0.7614
  344DOPC  H18Z47472  10.848   1.136   4.282 -0.2035 -0.4174 -0.4395
  345DOPC     N47473   5.288   5.122   1.880 -0.3955 -0.1479 -0.1579
  345DOPC   C1247474   5.315   5.224   1.993 -0.0528 -0.2290  0.9463
  345DOPC  H12A47475   5.308   5.318   1.941  0.6759 -0.6130  0.1292
  345DOPC  H12B47476   5.419   5.223   2.020 -0.3648  0.2881  2.2548
  345DOPC   C1347477   5.330   4.985   1.924 -0.3770  0.3665 -0.0181
  345DOPC  H13A47478   5.265   4.930   1.989  0.0223 -0.7535 -0.5479
  345DOPC  H13B47479   5.318   4.918   1.841 -3.3462  0.7380  0.0007
  345DOPC  H13C47480   5.428   4.984   1.971 -0.3941  0.5540  0.0264
  345DOPC   C1447481   5.375   5.149   1.760 -0.0675  0.8209  0.2453
  345DOPC  H14A47482   5.390   5.061   1.700  1.3602  1.7004 -0.7445
  345DOPC  H14B47483   5.353   5.228   1.690  0.4536  0.2418 -0.5868
  345DOPC  H14C47484   5.475   5.166   1.798 -0.3698 -0.8086  1.9473
  345DOPC   C1547485   5.146   5.112   1.845  0.1971 -0.6935 -0.4691
  345DOPC  H15A47486   5.121   5.204   1.795  1.3297  0.4407  0.9595
  345DOPC  H15B47487   5.090   5.117   1.937  1.2545  0.4391  0.1394
  345DOPC  H15C47488   5.125   5.025   1.784  0.7788 -0.8373 -0.4692
  345DOPC   C1147489   5.226   5.209   2.120 -0.0614 -0.1562  0.1179
  345DOPC  H11A47490   5.237   5.106   2.159  2.3971  0.7858  2.2368
  345DOPC  H11B47491   5.273   5.273   2.198 -0.4814 -0.0616  0.2899
  345DOPC     P47492   5.056   5.402   2.130  0.2519  0.4464 -0.2787
  345DOPC   O1347493   4.917   5.422   2.085  0.0792 -0.0969  0.4273
  345DOPC   O1447494   5.156   5.491   2.070  0.5430  0.0728 -0.4317
  345DOPC   O1247495   5.089   5.250   2.098  0.0326  0.1847  0.3118
  345DOPC   O1147496   5.063   5.398   2.290  0.3437  0.3568  0.4248
  345DOPC    C147497   5.032   5.283   2.368  0.3795 -0.1480 -0.8054
  345DOPC    HA47498   5.106   5.202   2.353  1.5325  1.0040 -1.4655
  345DOPC    HB47499   4.935   5.238   2.336  0.0955 -0.7276  0.8055
  345DOPC    C247500   5.026   5.322   2.520 -0.2839  0.2468  0.2495
  345DOPC    HS47501   5.014   5.231   2.583 -0.8019 -0.5928 -1.0136
  345DOPC   O2147502   4.924   5.423   2.554 -0.1113 -0.1974 -0.0113
  345DOPC   C2147503   4.804   5.390   2.548 -0.0372  0.0956 -0.1895
  345DOPC   O2247504   4.754   5.283   2.513  0.2085 -0.0154  0.2154
  345DOPC   C2247505   4.718   5.516   2.591  0.0131  0.5582  0.2289
  345DOPC   H2R47506   4.628   5.511   2.526  0.3796 -0.3555 -0.2152
  345DOPC   H2S47507   4.779   5.606   2.568  0.8463 -0.1972 -0.6059
  345DOPC    C347508   5.161   5.379   2.561  0.5941 -0.0464  0.0321
  345DOPC    HX47509   5.176   5.465   2.492 -2.2963 -0.3641 -1.1152
  345DOPC    HY47510   5.237   5.298   2.548 -0.9267 -1.4960 -0.2343
  345DOPC   O3147511   5.167   5.415   2.700 -0.3666 -0.4007 -0.3102
  345DOPC   C3147512   5.225   5.524   2.738 -0.3737 -0.0092 -0.0833
  345DOPC   O3247513   5.292   5.599   2.670 -0.4906 -0.3125 -0.1834
  345DOPC   C3247514   5.207   5.539   2.885  0.3826 -0.2559 -0.4451
  345DOPC   H2X47515   5.099   5.552   2.905  0.9927  1.8365  1.9861
  345DOPC   H2Y47516   5.236   5.441   2.929  0.5621 -1.4147 -2.9784
  345DOPC   C2347517   4.675   5.503   2.740  0.8684  0.4518 -0.2913
  345DOPC   H3R47518   4.766   5.479   2.799 -1.4450 -4.7765  1.7734
  345DOPC   H3S47519   4.610   5.413   2.748  2.6521 -1.2001 -2.9675
  345DOPC   C2447520   4.614   5.638   2.786  0.5552 -0.0981  0.4366
  345DOPC   H4R47521   4.516   5.650   2.736  0.2982 -0.5985  0.8144
  345DOPC   H4S47522   4.676   5.720   2.745 -0.1579  0.6992  0.9238
  345DOPC   C2547523   4.598   5.649   2.935  0.6883 -0.4984  0.6060
  345DOPC   H5R47524   4.693   5.669   2.988 -0.1245 -0.8073  2.2699
  345DOPC   H5S47525   4.556   5.554   2.975  1.5105 -2.1236 -2.1073
  345DOPC   C2647526   4.498   5.767   2.959 -0.0958 -0.5488 -0.5803
  345DOPC   H6R47527   4.393   5.745   2.932 -0.5958  1.9429 -0.9547
  345DOPC   H6S47528   4.531   5.850   2.893  1.0857 -0.6131 -0.1020
  345DOPC   C2747529   4.511   5.811   3.110  0.0519  0.4196  0.2402
  345DOPC   H7R47530   4.619   5.840   3.116  0.7336 -1.5762 -1.3990
  345DOPC   H7S47531   4.501   5.727   3.182 -0.6707 -0.2983 -0.6818
  345DOPC   C2847532   4.433   5.933   3.149 -0.6622  0.5115  0.0523
  345DOPC   H8R47533   4.440   6.011   3.071 -2.3567  0.4298 -0.2348
  345DOPC   H8S47534   4.472   5.971   3.245 -1.0156 -0.1937  0.4879
  345DOPC   C2947535   4.288   5.879   3.166  0.2675 -0.1862 -0.0375
  345DOPC   H9R47536   4.251   5.837   3.071 -2.0732  1.4849  0.0434
  345DOPC  C21047537   4.205   5.892   3.267 -0.0193  0.8553 -0.6394
  345DOPC  H10R47538   4.101   5.858   3.268 -0.5524  2.2139  2.3411
  345DOPC  C21147539   4.247   5.951   3.404  0.2338 -0.0176  0.1457
  345DOPC  H11R47540   4.187   6.044   3.412  1.0554  0.4720  0.8716
  345DOPC  H11S47541   4.352   5.989   3.403 -0.1995  1.2793 -1.7440
  345DOPC  C21247542   4.231   5.874   3.528 -0.2476  0.1811 -0.3680
  345DOPC  H12R47543   4.310   5.797   3.530 -0.6900 -0.3211 -1.5748
  345DOPC  H12S47544   4.131   5.830   3.551  0.1923 -0.4606  0.3647
  345DOPC  C21347545   4.266   5.950   3.662  0.5681  0.0143  0.0003
  345DOPC  H13R47546   4.198   6.038   3.665  0.4624 -0.0114 -1.2696
  345DOPC  H13S47547   4.368   5.993   3.665  0.6916 -0.2742 -0.1047
  345DOPC  C21447548   4.238   5.865   3.794  0.1545 -1.0470 -0.3413
  345DOPC  H14R47549   4.322   5.794   3.812  1.7468  0.2073 -2.5053
  345DOPC  H14S47550   4.160   5.788   3.774 -0.1585 -0.2905 -2.1677
  345DOPC  C21547551   4.202   5.951   3.915 -0.2596 -0.0991  0.0056
  345DOPC  H15R47552   4.096   5.984   3.910 -0.1474  0.3343  0.3879
  345DOPC  H15S47553   4.264   6.041   3.931 -0.0583  0.0360 -1.3896
  345DOPC  C21647554   4.210   5.862   4.038 -0.2962 -0.2766 -0.0388
  345DOPC  H16R47555   4.315   5.828   4.053 -0.1134 -0.2443 -1.1480
  345DOPC  H16S47556   4.148   5.772   4.021  0.4678 -1.1754  1.6100
  345DOPC  C21747557   4.164   5.936   4.169 -0.6602  0.8263  1.2412
  345DOPC  H17R47558   4.054   5.947   4.155 -1.0204 -3.0303 -0.2849
  345DOPC  H17S47559   4.210   6.036   4.178  0.4820  0.5512 -1.0062
  345DOPC  C21847560   4.173   5.850   4.298 -0.1653 -0.1102 -0.2251
  345DOPC  H18R47561   4.109   5.902   4.373  0.0905 -0.5767  0.3265
  345DOPC  H18S47562   4.278   5.850   4.335  0.5146  4.5705 -1.4558
  345DOPC  H18T47563   4.137   5.745   4.295  1.4902 -0.8893  2.7606
  345DOPC   C3347564   5.273   5.664   2.942 -0.1650  0.1727 -0.1299
  345DOPC   H3X47565   5.199   5.747   2.953  0.2276  0.2783  2.2841
  345DOPC   H3Y47566   5.352   5.707   2.876  1.4825 -0.2679  1.4868
  345DOPC   C3447567   5.323   5.632   3.080 -0.3198 -0.8571  0.0150
  345DOPC   H4X47568   5.377   5.722   3.118  0.4521 -1.2735 -0.0741
  345DOPC   H4Y47569   5.401   5.553   3.074  3.0306  2.1044  0.6292
  345DOPC   C3547570   5.220   5.585   3.187  0.5716  0.1092 -0.1344
  345DOPC   H5X47571   5.177   5.483   3.175  1.5609 -0.6728  2.2691
  345DOPC   H5Y47572   5.132   5.654   3.185 -0.2115 -0.8736 -1.3573
  345DOPC   C3647573   5.271   5.593   3.334  0.4492 -0.5502 -0.5521
  345DOPC   H6X47574   5.343   5.510   3.351  0.5868 -0.2817  0.2467
  345DOPC   H6Y47575   5.312   5.694   3.355  0.1550 -0.0643 -2.2193
  345DOPC   C3747576   5.155   5.577   3.438  0.0599  0.2736  0.4417
  345DOPC   H7X47577   5.095   5.671   3.437  1.3181  1.1069  1.3361
  345DOPC   H7Y47578   5.088   5.493   3.409  2.0908 -1.2089 -0.1305
  345DOPC   C3847579   5.200   5.534   3.576 -0.3299  0.0292 -0.8025
  345DOPC   H8X47580   5.254   5.437   3.583 -1.3552 -0.4541  0.7754
  345DOPC   H8Y47581   5.109   5.521   3.637 -1.0239  1.8457 -1.3815
  345DOPC   C3947582   5.282   5.629   3.658 -0.0164 -0.0307  0.9700
  345DOPC   H9X47583   5.378   5.584   3.687 -0.4652 -1.5814  0.1984
  345DOPC  C31047584   5.241   5.745   3.716  0.6811 -0.2261  0.1223
  345DOPC  H10X47585   5.313   5.802   3.777 -0.9282 -1.1292  3.0337
  345DOPC  C31147586   5.112   5.814   3.694  0.2499 -0.0012 -0.5580
  345DOPC  H11X47587   5.025   5.748   3.715 -1.5342  1.6524 -2.3071
  345DOPC  H11Y47588   5.114   5.863   3.594  0.9432  3.8531  1.1613
  345DOPC  C31247589   5.090   5.934   3.794  0.4055 -0.2154  0.4195
  345DOPC  H12X47590   4.993   5.977   3.761 -0.3522 -1.6722  0.6819
  345DOPC  H12Y47591   5.146   6.025   3.762 -2.0436  1.1565 -0.2797
  345DOPC  C31347592   5.087   5.904   3.945  0.0666 -0.5204  0.2877
  345DOPC  H13X47593   5.038   5.808   3.973  0.7030 -1.3779 -1.3746
  345DOPC  H13Y47594   5.193   5.894   3.979  1.0637 -0.6167 -2.4952
  345DOPC  C31447595   5.020   6.022   4.018  0.0850  0.5688  0.5254
  345DOPC  H14X47596   4.915   6.032   3.984  0.7558 -0.2490 -1.9973
  345DOPC  H14Y47597   5.021   6.000   4.127  0.7394  1.3121  0.6797
  345DOPC  C31547598   5.101   6.158   4.012 -0.0189  0.7743 -0.2050
  345DOPC  H15X47599   5.091   6.201   3.910  2.6987  1.1408 -0.3973
  345DOPC  H15Y47600   5.210   6.155   4.035 -0.7873  1.9272  4.5237
  345DOPC  C31647601   5.034   6.255   4.107  0.4397  0.1683  0.5704
  345DOPC  H16X47602   4.933   6.287   4.073 -0.2416 -0.6264  1.7637
  345DOPC  H16Y47603   5.011   6.196   4.198 -1.6191 -2.1018 -1.2538
  345DOPC  C31747604   5.103   6.383   4.134 -0.2632 -0.1376  0.0636
  345DOPC  H17X47605   5.149   6.424   4.042  0.7594 -0.0763  0.5860
  345DOPC  H17Y47606   5.029   6.458   4.170 -0.6856  0.0371 -1.1321
  345DOPC  C31847607   5.206   6.364   4.243 -0.1007 -0.5503  0.2958
  345DOPC  H18X47608   5.165   6.331   4.341 -0.5932  2.0087  1.0507
  345DOPC  H18Y47609   5.279   6.292   4.200  0.7213  0.9106 -0.8868
  345DOPC  H18Z47610   5.245   6.464   4.273  1.0668 -0.9390  0.1250
  346DOPC     N47611   8.179   7.212   1.841  0.0017  0.3608 -1.0292
  346DOPC   C1247612   8.151   7.342   1.928 -0.3817  0.6549  1.0241
  346DOPC  H12A47613   8.069   7.321   1.994 -0.7308 -0.3877  0.2859
  346DOPC  H12B47614   8.113   7.417   1.860  0.6943  0.8283  0.5824
  346DOPC   C1347615   8.278   7.235   1.732  0.4057  0.1404 -0.2852
  346DOPC  H13A47616   8.239   7.315   1.671  0.2350 -0.0423 -0.4157
  346DOPC  H13B47617   8.373   7.268   1.772  0.2925 -0.1546  0.2270
  346DOPC  H13C47618   8.282   7.144   1.674  0.0123  1.8983 -3.3229
  346DOPC   C1447619   8.061   7.146   1.777  0.4089 -0.0904  0.3166
  346DOPC  H14A47620   7.998   7.214   1.723 -0.7015  0.2134  1.9167
  346DOPC  H14B47621   8.098   7.070   1.709  3.0613  1.0022  0.4385
  346DOPC  H14C47622   7.992   7.096   1.844  1.1057 -1.8934 -0.2399
  346DOPC   C1547623   8.240   7.112   1.933 -0.9278  0.2912  0.2770
  346DOPC  H15A47624   8.164   7.075   2.000 -0.3070 -0.5549  0.5304
  346DOPC  H15B47625   8.323   7.158   1.984 -1.0886  0.4840  0.3667
  346DOPC  H15C47626   8.289   7.030   1.883 -1.7693  0.0515 -0.1719
  346DOPC   C1147627   8.266   7.403   2.014  0.0736  0.0286  0.0626
  346DOPC  H11A47628   8.220   7.493   2.060  0.0917  0.7258 -1.2438
  346DOPC  H11B47629   8.298   7.330   2.092  0.9653  0.8808  0.5223
  346DOPC     P47630   8.385   7.578   1.862 -0.0048 -0.3826  0.2493
  346DOPC   O1347631   8.282   7.588   1.761  0.0573  0.0083  0.1562
  346DOPC   O1447632   8.520   7.592   1.807 -0.0648  0.1748 -0.6077
  346DOPC   O1247633   8.375   7.439   1.931 -0.1555  0.9785 -0.4535
  346DOPC   O1147634   8.371   7.693   1.971 -0.5009  0.7235 -0.3252
  346DOPC    C147635   8.484   7.713   2.062 -0.3176  0.3793 -0.4556
  346DOPC    HA47636   8.531   7.810   2.035 -1.0578  0.9884  0.3903
  346DOPC    HB47637   8.567   7.641   2.047  0.1593  0.9073 -0.3683
  346DOPC    C247638   8.451   7.723   2.220  0.2628  0.5008  0.1020
  346DOPC    HS47639   8.533   7.779   2.268  1.1019 -1.7512  1.4863
  346DOPC   O2147640   8.432   7.600   2.286 -0.4704  0.6310 -0.9587
  346DOPC   C2147641   8.542   7.527   2.292 -0.1570  0.1249  0.1945
  346DOPC   O2247642   8.651   7.566   2.256 -0.4004 -0.1487  0.8326
  346DOPC   C2247643   8.498   7.381   2.327  0.5901 -0.0336 -0.0552
  346DOPC   H2R47644   8.586   7.321   2.358  0.8594  1.0161  1.3204
  346DOPC   H2S47645   8.470   7.338   2.228  0.7184  0.1312 -0.1631
  346DOPC    C347646   8.317   7.802   2.244 -0.3296 -0.6893  0.0301
  346DOPC    HX47647   8.229   7.742   2.212 -1.0955 -0.2931  1.3324
  346DOPC    HY47648   8.334   7.883   2.170 -1.8075  0.4807  0.9163
  346DOPC   O3147649   8.319   7.861   2.379 -0.3781 -0.3575  0.2570
  346DOPC   C3147650   8.230   7.809   2.466 -0.0327 -0.5110 -0.9605
  346DOPC   O3247651   8.155   7.713   2.451 -0.2043 -0.3218 -0.4811
  346DOPC   C3247652   8.256   7.891   2.594 -0.0129  0.3097 -0.1692
  346DOPC   H2X47653   8.363   7.889   2.624 -0.2865 -0.5493  0.8070
  346DOPC   H2Y47654   8.223   7.990   2.557  1.6507  1.5781  1.5725
  346DOPC   C2347655   8.380   7.359   2.417  0.1443  0.2646 -0.2556
  346DOPC   H3R47656   8.346   7.253   2.415 -2.5211  1.0365 -0.4257
  346DOPC   H3S47657   8.287   7.416   2.393  0.1296  0.2305 -0.2831
  346DOPC   C2447658   8.416   7.400   2.565  1.0127 -0.5056  0.3812
  346DOPC   H4R47659   8.459   7.502   2.556  0.7020 -0.5760 -4.7401
  346DOPC   H4S47660   8.492   7.327   2.599  1.1214 -0.5616  0.0266
  346DOPC   C2547661   8.292   7.405   2.657  0.5790 -0.4314  0.6726
  346DOPC   H5R47662   8.255   7.302   2.679  1.5370 -0.7098  1.0330
  346DOPC   H5S47663   8.218   7.461   2.597  0.1797 -0.5027  1.0978
  346DOPC   C2647664   8.310   7.470   2.791 -0.1823 -0.9841 -0.8502
  346DOPC   H6R47665   8.220   7.447   2.853 -0.8203  0.9438 -0.9832
  346DOPC   H6S47666   8.309   7.580   2.775 -0.1452 -0.7550  0.5761
  346DOPC   C2747667   8.437   7.424   2.876  0.7203 -0.2779  0.3826
  346DOPC   H7R47668   8.535   7.448   2.830  0.9545  0.9474  1.4460
  346DOPC   H7S47669   8.431   7.313   2.883 -1.9583 -0.4010 -2.0841
  346DOPC   C2847670   8.454   7.492   3.014  0.0310 -0.3070 -0.3933
  346DOPC   H8R47671   8.361   7.484   3.074 -1.0627  0.3223 -1.9302
  346DOPC   H8S47672   8.454   7.603   3.004  1.7839 -0.2465 -0.1554
  346DOPC   C2947673   8.576   7.446   3.096  0.7890  0.2431  0.5610
  346DOPC   H9R47674   8.586   7.343   3.132 -0.4456 -0.5732 -1.2772
  346DOPC  C21047675   8.677   7.524   3.139 -0.1383  0.0729  0.5028
  346DOPC  H10R47676   8.767   7.483   3.188  2.9379  1.7615 -3.2198
  346DOPC  C21147677   8.696   7.666   3.105 -0.5481 -0.2890 -0.7874
  346DOPC  H11R47678   8.621   7.711   3.037  0.0768  0.5189 -0.9521
  346DOPC  H11S47679   8.794   7.671   3.052 -0.1382 -1.2620 -0.1607
  346DOPC  C21247680   8.719   7.746   3.237 -0.3650 -0.5465  0.4229
  346DOPC  H12R47681   8.806   7.704   3.292  0.4665  0.3475 -0.1698
  346DOPC  H12S47682   8.634   7.739   3.309  0.6767  0.6650  1.8318
  346DOPC  C21347683   8.752   7.895   3.211  0.5156 -0.2738  0.0965
  346DOPC  H13R47684   8.669   7.939   3.152  0.3871  0.3622  0.7364
  346DOPC  H13S47685   8.846   7.912   3.154 -1.1289  0.1097 -2.6820
  346DOPC  C21447686   8.755   7.973   3.344 -0.2638 -0.6975 -0.0335
  346DOPC  H14R47687   8.826   7.928   3.416 -0.7288  0.5876  1.2761
  346DOPC  H14S47688   8.652   7.961   3.383 -1.3349 -0.5018 -2.5557
  346DOPC  C21547689   8.800   8.119   3.317 -0.6591  0.4595  0.0664
  346DOPC  H15R47690   8.893   8.126   3.256  0.1977  0.8656  1.3857
  346DOPC  H15S47691   8.831   8.169   3.411 -1.4160 -0.2684  0.7196
  346DOPC  C21647692   8.687   8.198   3.254 -0.4753 -0.3884  0.2246
  346DOPC  H16R47693   8.593   8.154   3.294 -1.1042  1.2294  0.5745
  346DOPC  H16S47694   8.684   8.183   3.144 -1.5266  1.9129 -0.1000
  346DOPC  C21747695   8.688   8.343   3.292  0.3977 -0.4310  0.0976
  346DOPC  H17R47696   8.768   8.398   3.237 -0.6702  1.2722  0.1646
  346DOPC  H17S47697   8.719   8.360   3.397  1.0332  0.5554 -0.2319
  346DOPC  C21847698   8.554   8.420   3.273  0.3560  0.1622 -0.0861
  346DOPC  H18R47699   8.557   8.531   3.286  1.2412  0.0897  0.3737
  346DOPC  H18S47700   8.473   8.376   3.334 -0.3759 -1.2710 -2.0030
  346DOPC  H18T47701   8.522   8.405   3.167  0.7480  0.9206 -0.3261
  346DOPC   C3347702   8.154   7.835   2.697  0.1317 -0.2011 -0.2211
  346DOPC   H3X47703   8.166   7.727   2.721  0.4121  0.2278  1.7263
  346DOPC   H3Y47704   8.050   7.849   2.661  0.1965 -1.5299 -0.9853
  346DOPC   C3447705   8.155   7.904   2.833 -0.1470  0.1948  0.0008
  346DOPC   H4X47706   8.063   7.864   2.882 -0.8461  1.3584 -0.3264
  346DOPC   H4Y47707   8.149   8.014   2.822 -0.0590  0.1427 -0.6016
  346DOPC   C3547708   8.273   7.859   2.925 -0.3044  0.4104  0.0203
  346DOPC   H5X47709   8.369   7.884   2.876 -0.0365 -1.5000 -0.5322
  346DOPC   H5Y47710   8.266   7.748   2.936 -0.7339  0.2737 -1.4296
  346DOPC   C3647711   8.257   7.913   3.071  0.2021 -0.1857 -0.5861
  346DOPC   H6X47712   8.224   8.019   3.075 -1.0605 -0.6032  1.5021
  346DOPC   H6Y47713   8.167   7.863   3.114 -0.5072  1.5083 -0.0214
  346DOPC   C3747714   8.369   7.883   3.166 -0.2660 -0.0679 -0.1159
  346DOPC   H7X47715   8.387   7.773   3.162  2.7405  0.3440  0.4607
  346DOPC   H7Y47716   8.462   7.942   3.153 -0.9556  1.8279  2.7278
  346DOPC   C3847717   8.317   7.914   3.309  0.1010  0.4586 -0.1796
  346DOPC   H8X47718   8.216   7.867   3.316 -0.4543  1.5668 -0.5843
  346DOPC   H8Y47719   8.290   8.019   3.330 -0.8954  0.3474 -0.8105
  346DOPC   C3947720   8.392   7.840   3.414 -0.3675 -0.4583 -0.2055
  346DOPC   H9X47721   8.423   7.737   3.394  2.0201  0.4796 -1.7581
  346DOPC  C31047722   8.418   7.886   3.537  0.1430  0.2933  0.2328
  346DOPC  H10X47723   8.466   7.817   3.609  0.2176  0.4193  0.3050
  346DOPC  C31147724   8.388   8.031   3.571 -0.5423 -0.6403  0.7710
  346DOPC  H11X47725   8.278   8.044   3.584 -1.2934 -2.7543 -2.3022
  346DOPC  H11Y47726   8.411   8.092   3.481 -1.8722 -2.0716 -0.5897
  346DOPC  C31247727   8.473   8.078   3.693 -0.5833 -0.3942  0.9181
  346DOPC  H12X47728   8.459   8.007   3.777  0.5168  1.8820  3.1601
  346DOPC  H12Y47729   8.436   8.180   3.716 -0.4417  0.1958 -1.2160
  346DOPC  C31347730   8.628   8.081   3.668 -0.0339 -0.0600  0.5132
  346DOPC  H13X47731   8.662   7.975   3.667  0.2507  0.0254  0.9221
  346DOPC  H13Y47732   8.646   8.129   3.569 -0.1688 -1.9304 -0.4795
  346DOPC  C31447733   8.707   8.153   3.773 -0.1955  0.2477 -0.6877
  346DOPC  H14X47734   8.811   8.179   3.740 -0.3544 -1.8932 -3.2678
  346DOPC  H14Y47735   8.655   8.244   3.809 -0.3086 -0.5831  1.3308
  346DOPC  C31547736   8.711   8.068   3.900  0.1707  0.5382 -0.1562
  346DOPC  H15X47737   8.715   7.959   3.878 -0.6641  0.3948  0.3613
  346DOPC  H15Y47738   8.623   8.082   3.966  1.1510  1.5170  1.0020
  346DOPC  C31647739   8.836   8.098   3.979 -0.0827 -0.2674  0.5750
  346DOPC  H16X47740   8.924   8.044   3.938  0.3846  0.1790  0.9721
  346DOPC  H16Y47741   8.857   8.206   3.964 -0.3895 -0.1914  0.6823
  346DOPC  C31747742   8.821   8.081   4.128  0.6737  1.3039  0.1166
  346DOPC  H17X47743   8.916   8.100   4.182  0.7199  0.3172  0.4170
  346DOPC  H17Y47744   8.742   8.146   4.170 -0.5152 -0.1265  0.2105
  346DOPC  C31847745   8.778   7.940   4.169  0.1726 -0.3151  0.1118
  346DOPC  H18X47746   8.710   7.891   4.096 -0.0635 -2.2966  1.5964
  346DOPC  H18Y47747   8.860   7.870   4.193 -1.1562 -1.3612  1.8587
  346DOPC  H18Z47748   8.717   7.942   4.262 -1.6227 -0.4409 -1.0053
  347DOPC     N47749  11.519   6.124   1.534  0.9899 -0.2281  0.2245
  347DOPC   C1247750  11.535   6.125   1.692 -0.0419  0.2098  0.3733
  347DOPC  H12A47751  11.488   6.032   1.723  0.6501 -0.5653 -0.8060
  347DOPC  H12B47752  11.481   6.213   1.723 -2.7023 -1.3216  0.4590
  347DOPC   C1347753  11.575   6.001   1.477 -0.9006  0.5921 -0.1214
  347DOPC  H13A47754  11.537   5.908   1.517 -0.1421 -0.6266 -2.0886
  347DOPC  H13B47755  11.560   5.997   1.370  1.8983 -0.4533 -0.5605
  347DOPC  H13C47756  11.681   5.999   1.493 -1.0007  1.8827  0.8306
  347DOPC   C1447757  11.585   6.244   1.473  0.0298 -0.2916 -0.7227
  347DOPC  H14A47758  11.584   6.246   1.365  0.8999  0.2983 -0.7380
  347DOPC  H14B47759  11.539   6.336   1.506  0.7176 -0.0778 -0.3390
  347DOPC  H14C47760  11.687   6.261   1.505 -0.5667  0.9307  0.6324
  347DOPC   C1547761  11.369   6.126   1.506 -0.4269  0.0974  0.1513
  347DOPC  H15A47762  11.319   6.046   1.559 -0.5661  0.9993  1.3996
  347DOPC  H15B47763  11.349   6.132   1.400  1.2905  2.7429 -0.1135
  347DOPC  H15C47764  11.333   6.220   1.544  0.8334  1.3137 -1.4788
  347DOPC   C1147765  11.676   6.119   1.746 -0.0777  0.4910  0.4758
  347DOPC  H11A47766  11.667   6.108   1.856  0.6829 -0.3265  0.4704
  347DOPC  H11B47767  11.721   6.024   1.710 -1.9979  0.2422 -1.5225
  347DOPC     P47768  11.731   6.375   1.764  0.3321 -0.0411 -0.4400
  347DOPC   O1347769  11.591   6.406   1.735 -0.0573  0.4330 -0.1465
  347DOPC   O1447770  11.833   6.470   1.717  0.5165 -0.2674  0.0549
  347DOPC   O1247771  11.755   6.233   1.701  0.5414  0.7573  0.2049
  347DOPC   O1147772  11.754   6.352   1.917  0.2917  0.6027 -0.9321
  347DOPC    C147773  11.887   6.326   1.970  0.4805 -0.3840 -0.0795
  347DOPC    HA47774  11.964   6.380   1.912  1.6164 -3.0123 -1.2091
  347DOPC    HB47775  11.903   6.216   1.963 -0.7392 -0.6338  0.6949
  347DOPC    C247776  11.896   6.366   2.118  0.8663  0.0526  0.6183
  347DOPC    HS47777  11.958   6.288   2.169 -0.1092 -1.9058 -1.0498
  347DOPC   O2147778  11.764   6.357   2.170 -0.1257 -0.4646 -0.0365
  347DOPC   C2147779  11.716   6.240   2.192 -0.0152  0.6494  0.2603
  347DOPC   O2247780  11.782   6.138   2.177  0.0292  0.5597  0.5197
  347DOPC   C2247781  11.572   6.242   2.234  0.0602 -0.2775  0.1647
  347DOPC   H2R47782  11.541   6.137   2.218  0.4596 -0.3247 -0.3243
  347DOPC   H2S47783  11.511   6.301   2.162  1.4893 -1.2287 -1.9030
  347DOPC    C347784  11.957   6.508   2.135  0.4697 -0.0653  1.1909
  347DOPC    HX47785  11.914   6.581   2.063  2.4458  0.3729  0.3811
  347DOPC    HY47786  12.059   6.511   2.091  0.0358  0.3898  0.1751
  347DOPC   O3147787  11.969   6.551   2.276 -1.0469  0.0437  0.3537
  347DOPC   C3147788  11.858   6.600   2.334  0.1405 -0.2384 -0.3415
  347DOPC   O3247789  11.756   6.637   2.277  0.4608 -0.2956  0.1340
  347DOPC   C3247790  11.886   6.615   2.490  0.2397  0.6163 -0.4484
  347DOPC   H2X47791  11.897   6.511   2.529 -0.6966  0.8159  0.4021
  347DOPC   H2Y47792  11.981   6.669   2.508  0.6087  0.6895 -2.4470
  347DOPC   C2347793  11.557   6.285   2.386 -0.1578  0.4665 -0.6911
  347DOPC   H3R47794  11.453   6.266   2.422  0.6501  1.2222  2.3334
  347DOPC   H3S47795  11.577   6.393   2.401  1.1817  0.5200 -2.5687
  347DOPC   C2447796  11.643   6.211   2.491 -0.8385 -0.1622  0.2481
  347DOPC   H4R47797  11.751   6.218   2.465 -0.9957 -0.1979 -0.4471
  347DOPC   H4S47798  11.613   6.104   2.490  0.1960 -0.4742 -0.8940
  347DOPC   C2547799  11.624   6.272   2.624 -0.1277 -0.7346 -0.2325
  347DOPC   H5R47800  11.519   6.256   2.657 -1.0645  4.3117  0.1755
  347DOPC   H5S47801  11.633   6.383   2.615 -0.8614 -0.7786 -1.7994
  347DOPC   C2647802  11.735   6.228   2.717 -0.3311 -0.3374  1.0982
  347DOPC   H6R47803  11.832   6.273   2.689  1.2380 -2.2782  3.0389
  347DOPC   H6S47804  11.748   6.119   2.728  1.2033 -0.8355 -3.5053
  347DOPC   C2747805  11.708   6.283   2.866 -0.4372 -0.0506  0.8424
  347DOPC   H7R47806  11.608   6.239   2.888 -0.0361  0.1769  3.3797
  347DOPC   H7S47807  11.700   6.394   2.859  1.8579  0.0829 -1.3054
  347DOPC   C2847808  11.809   6.232   2.962 -0.2404  0.1374 -0.0762
  347DOPC   H8R47809  11.913   6.269   2.948  0.3779 -0.2176  2.9020
  347DOPC   H8S47810  11.823   6.124   2.943  1.5090  0.2154  0.5448
  347DOPC   C2947811  11.762   6.245   3.108 -0.4966  0.1127  0.2467
  347DOPC   H9R47812  11.659   6.280   3.121 -0.7142 -0.8947  1.4706
  347DOPC  C21047813  11.834   6.192   3.212  0.2843 -0.1900 -0.3054
  347DOPC  H10R47814  11.789   6.197   3.312 -0.4086 -1.7047 -0.5149
  347DOPC  C21147815  11.965   6.116   3.212  0.5330  0.0303 -0.5644
  347DOPC  H11R47816  12.006   6.068   3.121  0.5991 -1.5789  0.2688
  347DOPC  H11S47817  11.964   6.033   3.286 -1.4422  1.1349  0.7189
  347DOPC  C21247818  12.076   6.214   3.264  0.3081  0.3495 -0.8962
  347DOPC  H12R47819  12.034   6.248   3.361 -0.1329  0.8676 -1.2640
  347DOPC  H12S47820  12.088   6.293   3.187  0.1195 -2.1314 -3.6525
  347DOPC  C21347821  12.208   6.148   3.300 -0.2934  0.5073 -0.2049
  347DOPC  H13R47822  12.234   6.090   3.209 -0.5701  0.9755 -0.5901
  347DOPC  H13S47823  12.198   6.066   3.374  1.0277  1.3650  0.9996
  347DOPC  C21447824  12.315   6.251   3.335 -0.2960 -0.2550  1.0526
  347DOPC  H14R47825  12.266   6.333   3.391 -1.5932  0.0501 -0.4518
  347DOPC  H14S47826  12.343   6.305   3.242 -1.2737 -1.3548  0.0955
  347DOPC  C21547827  12.430   6.178   3.398 -0.0793  0.2137 -0.0354
  347DOPC  H15R47828  12.490   6.123   3.321 -2.3413 -1.9233 -0.3978
  347DOPC  H15S47829  12.404   6.101   3.473  2.6754  0.1729  0.9969
  347DOPC  C21647830  12.540   6.272   3.458 -0.0297  0.2081 -0.2875
  347DOPC  H16R47831  12.493   6.354   3.517 -1.3387 -0.2536 -0.6701
  347DOPC  H16S47832  12.597   6.318   3.375  1.9112 -1.5918 -0.0374
  347DOPC  C21747833  12.637   6.194   3.543  0.1428  0.1259  0.1329
  347DOPC  H17R47834  12.649   6.100   3.486 -3.7103 -1.7076  1.9604
  347DOPC  H17S47835  12.592   6.168   3.641  0.4148 -0.6633  0.0513
  347DOPC  C21847836  12.762   6.278   3.564 -0.2684  0.3463 -0.3225
  347DOPC  H18R47837  12.836   6.218   3.621 -1.8012 -1.1922  0.1148
  347DOPC  H18S47838  12.742   6.379   3.606  3.2145  2.3036 -2.8058
  347DOPC  H18T47839  12.812   6.305   3.468  1.3567 -1.9967 -0.2246
  347DOPC   C3347840  11.760   6.694   2.540 -0.7071 -0.0227  0.5262
  347DOPC   H3X47841  11.665   6.646   2.511 -0.1895 -0.3383 -0.7172
  347DOPC   H3Y47842  11.758   6.795   2.493 -2.4916 -0.4947 -0.5025
  347DOPC   C3447843  11.767   6.702   2.697 -0.0536 -0.1239 -0.7731
  347DOPC   H4X47844  11.858   6.761   2.724  0.6942 -2.2841  1.7449
  347DOPC   H4Y47845  11.782   6.599   2.735  1.8213 -0.3475 -1.9846
  347DOPC   C3547846  11.651   6.773   2.771 -0.1841 -0.1125  0.0150
  347DOPC   H5X47847  11.566   6.702   2.765 -2.4197  2.3611  0.5326
  347DOPC   H5Y47848  11.611   6.860   2.715 -1.4833  0.2573  1.4464
  347DOPC   C3647849  11.682   6.816   2.922 -0.3140 -0.5881 -0.1577
  347DOPC   H6X47850  11.578   6.826   2.961 -0.4036 -3.5262  0.5593
  347DOPC   H6Y47851  11.736   6.733   2.972 -1.3627 -1.7387 -0.8993
  347DOPC   C3747852  11.762   6.943   2.934  0.5554  0.5459 -0.0449
  347DOPC   H7X47853  11.868   6.919   2.910  0.2257 -0.5440 -0.4873
  347DOPC   H7Y47854  11.734   7.014   2.854 -1.0855  0.1895  0.1782
  347DOPC   C3847855  11.748   7.015   3.068  0.2501 -0.3107  0.9878
  347DOPC   H8X47856  11.648   7.064   3.066  1.6381  2.8153 -2.0280
  347DOPC   H8Y47857  11.811   7.106   3.074 -0.3256  0.0864  1.1050
  347DOPC   C3947858  11.792   6.928   3.177  0.1161  0.5767  0.0151
  347DOPC   H9X47859  11.885   6.871   3.163  1.4661  1.9681  2.5290
  347DOPC  C31047860  11.738   6.923   3.300 -0.3118  0.1346  0.8806
  347DOPC  H10X47861  11.780   6.860   3.380  0.1556  0.6251  1.0289
  347DOPC  C31147862  11.612   6.996   3.350 -0.2816 -0.4242  0.2127
  347DOPC  H11X47863  11.570   6.925   3.423  0.6403 -1.9282 -0.6609
  347DOPC  H11Y47864  11.534   7.006   3.272 -0.5992 -2.7461  0.1898
  347DOPC  C31247865  11.646   7.125   3.437 -0.7559  0.2219  0.7669
  347DOPC  H12X47866  11.726   7.098   3.508  0.1003  2.2290  0.6391
  347DOPC  H12Y47867  11.553   7.146   3.494 -1.1066  1.7793 -0.2945
  347DOPC  C31347868  11.677   7.252   3.353  0.0013 -0.4220 -0.0168
  347DOPC  H13X47869  11.769   7.229   3.297 -0.3068  2.2237 -1.7441
  347DOPC  H13Y47870  11.596   7.281   3.283  1.7195  0.9837 -1.5119
  347DOPC  C31447871  11.702   7.379   3.440  0.7234  0.1721 -0.1261
  347DOPC  H14X47872  11.610   7.392   3.500  0.3984  1.0762 -0.7901
  347DOPC  H14Y47873  11.779   7.359   3.517  0.1904  1.1653  0.6821
  347DOPC  C31547874  11.724   7.513   3.362 -0.2388  0.4320  0.3325
  347DOPC  H15X47875  11.643   7.541   3.291 -0.7677 -1.5477  0.0764
  347DOPC  H15Y47876  11.810   7.486   3.297 -0.5243  0.3042 -0.0008
  347DOPC  C31647877  11.757   7.630   3.454 -0.5826 -0.0702 -0.3263
  347DOPC  H16X47878  11.850   7.599   3.507 -1.1565  1.6000  1.8187
  347DOPC  H16Y47879  11.779   7.720   3.393  1.5042  0.2400  0.7963
  347DOPC  C31747880  11.643   7.655   3.557  0.8411 -0.3498 -0.3673
  347DOPC  H17X47881  11.559   7.657   3.485  1.1828 -0.9514 -0.7994
  347DOPC  H17Y47882  11.644   7.563   3.619  0.6177  1.4725  2.4870
  347DOPC  C31847883  11.663   7.775   3.657  0.3470 -0.2419  0.2387
  347DOPC  H18X47884  11.661   7.877   3.614 -1.9295 -0.7452 -1.0062
  347DOPC  H18Y47885  11.589   7.767   3.740 -0.0915 -0.2917 -0.1531
  347DOPC  H18Z47886  11.760   7.772   3.711 -1.2074  0.0249  3.2683
  348DOPC     N47887   5.334  11.634   1.840 -0.1333 -0.4605 -0.2218
  348DOPC   C1247888   5.292  11.613   1.989  0.4692  0.2878 -1.0862
  348DOPC  H12A47889   5.322  11.696   2.051 -0.7978  0.5921 -0.8677
  348DOPC  H12B47890   5.350  11.526   2.015  2.1950  0.7248 -3.1548
  348DOPC   C1347891   5.473  11.688   1.845  0.0687 -0.4869  0.3963
  348DOPC  H13A47892   5.477  11.785   1.891  0.6549  0.7263 -2.0444
  348DOPC  H13B47893   5.544  11.615   1.882  1.0415 -1.0076 -2.2609
  348DOPC  H13C47894   5.513  11.720   1.750  1.8687  1.5929  1.7473
  348DOPC   C1447895   5.246  11.741   1.787  0.1175 -0.1362  0.0839
  348DOPC  H14A47896   5.146  11.699   1.788 -0.0216 -0.0505 -2.7515
  348DOPC  H14B47897   5.249  11.825   1.855 -1.2745  2.0161 -2.3230
  348DOPC  H14C47898   5.275  11.784   1.693  0.0407  0.3199  0.2628
  348DOPC   C1547899   5.332  11.511   1.756 -0.1948  0.4420 -0.0057
  348DOPC  H15A47900   5.358  11.421   1.809 -0.4393 -0.2967 -1.1042
  348DOPC  H15B47901   5.403  11.524   1.676  0.0276  1.2413  0.3121
  348DOPC  H15C47902   5.233  11.496   1.714 -0.7431  1.1051  0.9920
  348DOPC   C1147903   5.138  11.586   2.022 -0.5082 -0.0836  0.1294
  348DOPC  H11A47904   5.129  11.584   2.132 -0.7369 -2.0026  0.1187
  348DOPC  H11B47905   5.073  11.671   1.993 -1.3157  0.2221  2.6246
  348DOPC     P47906   5.125  11.334   2.054 -0.3402  0.0975 -0.2253
  348DOPC   O1347907   5.263  11.338   2.109  0.4993 -0.8053  0.7793
  348DOPC   O1447908   5.096  11.212   1.978  0.6047 -0.0218  0.1556
  348DOPC   O1247909   5.100  11.459   1.963 -0.2469 -1.2417 -0.2302
  348DOPC   O1147910   5.019  11.350   2.171 -1.0180 -0.5089 -0.2328
  348DOPC    C147911   4.968  11.245   2.246  0.1972 -0.2441  0.5604
  348DOPC    HA47912   4.948  11.161   2.177 -0.2846 -1.8694  2.5763
  348DOPC    HB47913   4.865  11.263   2.284 -0.3331  0.8131 -1.2848
  348DOPC    C247914   5.053  11.215   2.374 -0.3337  0.1404  0.2251
  348DOPC    HS47915   4.991  11.163   2.450  1.9771 -1.8436  0.8666
  348DOPC   O2147916   5.125  11.321   2.433 -0.1401  0.2760 -0.0376
  348DOPC   C2147917   5.044  11.412   2.486 -0.5561  0.0128  0.5284
  348DOPC   O2247918   4.922  11.401   2.482 -0.0857 -0.0614  0.0117
  348DOPC   C2247919   5.124  11.526   2.551  0.3336 -0.0815 -0.4846
  348DOPC   H2R47920   5.119  11.612   2.481  1.7093  0.9382  0.6149
  348DOPC   H2S47921   5.230  11.496   2.567 -0.5804 -2.7522  1.2803
  348DOPC    C347922   5.166  11.110   2.352  0.5015 -0.2673 -0.6979
  348DOPC    HX47923   5.246  11.125   2.277  0.4250  1.2744 -0.4858
  348DOPC    HY47924   5.104  11.023   2.322 -2.8459  1.4041  0.8902
  348DOPC   O3147925   5.228  11.072   2.478 -0.2939  0.0157  0.4138
  348DOPC   C3147926   5.348  11.127   2.507  0.3134  0.2193  1.3022
  348DOPC   O3247927   5.412  11.201   2.437  0.3485  0.1626 -0.1854
  348DOPC   C3247928   5.382  11.083   2.649 -0.3726 -0.5058 -0.3787
  348DOPC   H2X47929   5.293  11.098   2.713  1.5821  0.4452  2.2619
  348DOPC   H2Y47930   5.398  10.974   2.635 -0.7987 -0.4713 -1.1976
  348DOPC   C2347931   5.060  11.581   2.680 -0.0808 -0.0100  0.1491
  348DOPC   H3R47932   4.956  11.616   2.662  0.2013  0.6194 -0.2972
  348DOPC   H3S47933   5.119  11.670   2.711  1.4431 -0.0615 -2.3459
  348DOPC   C2447934   5.063  11.482   2.797  0.3833  0.1934  0.9564
  348DOPC   H4R47935   5.167  11.443   2.798  0.1034 -0.5542  1.3927
  348DOPC   H4S47936   4.995  11.395   2.791 -0.2680  0.5646  2.3476
  348DOPC   C2547937   5.038  11.548   2.940  0.2234  0.2720 -0.0575
  348DOPC   H5R47938   4.949  11.615   2.938 -0.5538 -0.7104  0.6445
  348DOPC   H5S47939   5.124  11.614   2.966 -1.7500  3.0962 -0.2149
  348DOPC   C2647940   5.021  11.446   3.050 -0.2838  0.0343  0.3715
  348DOPC   H6R47941   5.049  11.494   3.146 -1.0981 -2.1331  1.7585
  348DOPC   H6S47942   5.091  11.360   3.035  0.3028  0.3962  0.9651
  348DOPC   C2747943   4.883  11.386   3.067 -0.6985  0.8086 -0.1056
  348DOPC   H7R47944   4.847  11.341   2.972  0.5783 -2.6178  0.8799
  348DOPC   H7S47945   4.811  11.465   3.097 -2.0869  0.1052 -1.4226
  348DOPC   C2847946   4.890  11.278   3.177  0.4874 -0.3783  0.1312
  348DOPC   H8R47947   4.975  11.209   3.156  0.5251 -0.0094 -0.9943
  348DOPC   H8S47948   4.803  11.210   3.166  1.8706 -2.0048 -1.5788
  348DOPC   C2947949   4.895  11.332   3.321  0.8593  0.8244 -0.6504
  348DOPC   H9R47950   4.932  11.435   3.329  2.0957  0.3606 -0.1945
  348DOPC  C21047951   4.864  11.269   3.439  0.5963  0.4217  0.7872
  348DOPC  H10R47952   4.879  11.332   3.528 -0.4263  1.6313  0.1285
  348DOPC  C21147953   4.826  11.122   3.465  0.1291 -0.4751  0.0466
  348DOPC  H11R47954   4.751  11.093   3.388  1.0601 -0.7860 -0.7656
  348DOPC  H11S47955   4.764  11.112   3.557 -1.3125  0.2712 -0.7918
  348DOPC  C21247956   4.939  11.028   3.478 -0.6532  0.1507  0.1950
  348DOPC  H12R47957   4.976  11.017   3.373  0.1729 -2.4916  0.6766
  348DOPC  H12S47958   4.897  10.928   3.503  2.8839 -2.1449 -2.0145
  348DOPC  C21347959   5.067  11.064   3.563  0.6050 -0.6642  0.2344
  348DOPC  H13R47960   5.114  11.158   3.526 -3.3045  1.1954 -0.5252
  348DOPC  H13S47961   5.157  10.999   3.557  1.6304  0.6826  0.4887
  348DOPC  C21447962   5.023  11.074   3.711  0.4427  0.2062 -0.4343
  348DOPC  H14R47963   4.951  11.156   3.731  1.2871  0.3376  2.5462
  348DOPC  H14S47964   5.116  11.092   3.769  0.1556  0.4884 -0.0548
  348DOPC  C21547965   4.962  10.941   3.767 -0.4934  0.7494 -0.2652
  348DOPC  H15R47966   4.866  10.929   3.711 -0.0761  0.4977 -0.9334
  348DOPC  H15S47967   4.934  10.948   3.875  1.7600 -2.7482  0.6917
  348DOPC  C21647968   5.041  10.813   3.739 -0.7759  0.6623  0.4987
  348DOPC  H16R47969   5.140  10.824   3.788 -0.9568  0.1972  0.9816
  348DOPC  H16S47970   5.075  10.803   3.633  0.3153  0.4922  0.8499
  348DOPC  C21747971   4.963  10.699   3.782  0.1681 -0.8257  0.3311
  348DOPC  H17R47972   4.864  10.703   3.732  0.5616  1.2049 -0.3647
  348DOPC  H17S47973   4.945  10.704   3.892  0.7459  1.2394  0.3733
  348DOPC  C21847974   5.036  10.571   3.738 -0.3306 -0.2147  0.2274
  348DOPC  H18R47975   5.143  10.573   3.769 -0.9621  2.5218  2.7407
  348DOPC  H18S47976   5.012  10.543   3.634  1.8546  1.8673 -0.9416
  348DOPC  H18T47977   4.987  10.492   3.800 -0.0908 -0.3757  0.2129
  348DOPC   C3347978   5.517  11.135   2.711  1.0193 -0.1578  0.4782
  348DOPC   H3X47979   5.520  11.245   2.700  1.8963 -0.1893  0.3385
  348DOPC   H3Y47980   5.597  11.089   2.649 -0.2577 -0.1673 -1.2343
  348DOPC   C3447981   5.530  11.105   2.851  0.0436 -0.4151  0.3722
  348DOPC   H4X47982   5.534  10.995   2.865  1.0335 -0.2991  1.1040
  348DOPC   H4Y47983   5.440  11.131   2.911 -0.3664  0.7527 -0.7047
  348DOPC   C3547984   5.656  11.163   2.909  0.1569 -0.5666 -0.1421
  348DOPC   H5X47985   5.669  11.268   2.875  2.0397 -0.2034  1.5067
  348DOPC   H5Y47986   5.749  11.105   2.890 -1.4556 -3.0107 -1.0377
  348DOPC   C3647987   5.641  11.156   3.063  0.2825  0.2056  0.1044
  348DOPC   H6X47988   5.540  11.196   3.089 -1.3671 -1.6304 -2.8911
  348DOPC   H6Y47989   5.648  11.050   3.096  1.0215  0.8350  2.1148
  348DOPC   C3747990   5.752  11.227   3.142  0.5440  0.4591  0.5849
  348DOPC   H7X47991   5.835  11.154   3.134  1.6354  1.7554 -0.4619
  348DOPC   H7Y47992   5.767  11.332   3.107  0.2768  0.6818  1.1316
  348DOPC   C3847993   5.724  11.227   3.294 -0.2649  0.0366  0.1673
  348DOPC   H8X47994   5.679  11.130   3.327  1.6364 -0.9365  0.0345
  348DOPC   H8Y47995   5.644  11.300   3.320 -0.9135 -0.8010  0.5899
  348DOPC   C3947996   5.845  11.260   3.377  0.3924 -0.4902 -1.9137
  348DOPC   H9X47997   5.935  11.201   3.355  1.8553  0.9952 -0.2482
  348DOPC  C31047998   5.847  11.336   3.495  0.4720  1.3092  0.4550
  348DOPC  H10X47999   5.946  11.350   3.541  0.1619  0.5682  1.3857
  348DOPC  C31148000   5.736  11.405   3.576  0.2862 -0.8671  0.2784
  348DOPC  H11X48001   5.668  11.454   3.503 -2.0632 -2.1647  1.4598
  348DOPC  H11Y48002   5.789  11.487   3.629 -0.5035 -0.0815 -0.1129
  348DOPC  C31248003   5.649  11.308   3.662 -0.1722  0.1471  0.0706
  348DOPC  H12X48004   5.601  11.227   3.604 -0.7994 -0.5666  1.5374
  348DOPC  H12Y48005   5.566  11.366   3.708  0.2356  0.9988 -0.2584
  348DOPC  C31348006   5.732  11.252   3.782 -0.1534 -0.2510  0.1175
  348DOPC  H13X48007   5.811  11.186   3.740  0.8468  1.2243 -0.4489
  348DOPC  H13Y48008   5.777  11.338   3.836 -0.0602 -1.0621  1.3467
  348DOPC  C31448009   5.642  11.168   3.875 -0.4027  0.6314 -0.0836
  348DOPC  H14X48010   5.561  11.228   3.921 -0.2131 -0.1551  1.3386
  348DOPC  H14Y48011   5.601  11.079   3.822  0.4245  0.1889  0.0027
  348DOPC  C31548012   5.731  11.112   3.985 -0.2101  0.0852 -0.6850
  348DOPC  H15X48013   5.808  11.187   4.013 -1.8800  1.3679  0.6170
  348DOPC  H15Y48014   5.782  11.016   3.960  2.2486  0.9465  0.7042
  348DOPC  C31648015   5.652  11.077   4.108  0.3175 -0.5075 -0.2676
  348DOPC  H16X48016   5.552  11.038   4.079  0.9423 -0.8511 -2.1531
  348DOPC  H16Y48017   5.702  10.996   4.164 -1.8514 -1.6464  0.1396
  348DOPC  C31748018   5.648  11.205   4.201  0.7691  0.1581  0.7590
  348DOPC  H17X48019   5.755  11.208   4.232  0.6367  0.8190  1.1741
  348DOPC  H17Y48020   5.629  11.299   4.145  0.3866  0.8887  2.0689
  348DOPC  C31848021   5.557  11.191   4.320  0.1152  0.9562 -0.5228
  348DOPC  H18X48022   5.573  11.277   4.388  0.0756  1.0813 -0.6719
  348DOPC  H18Y48023   5.450  11.194   4.291 -0.6313 -0.3902  1.7895
  348DOPC  H18Z48024   5.580  11.105   4.386 -1.8493  1.1336  0.4639
  349DOPC     N48025   5.983   1.402   2.145 -0.3693 -0.4447  0.1779
  349DOPC   C1248026   6.079   1.481   2.232 -0.6080  0.4818  0.0913
  349DOPC  H12A48027   6.106   1.570   2.176 -1.2066  1.0566  0.6838
  349DOPC  H12B48028   6.173   1.431   2.243  0.4407  2.2138 -0.5379
  349DOPC   C1348029   5.861   1.481   2.111  0.2259  0.1305  0.0937
  349DOPC  H13A48030   5.816   1.520   2.201  0.3007 -1.8642  1.0544
  349DOPC  H13B48031   5.879   1.558   2.038  0.4586 -0.9970 -1.0696
  349DOPC  H13C48032   5.787   1.415   2.068  1.8455 -2.3706  0.9640
  349DOPC   C1448033   5.922   1.288   2.225 -0.3667  0.3088 -0.0965
  349DOPC  H14A48034   5.840   1.240   2.175  0.2026  0.3935 -1.1361
  349DOPC  H14B48035   6.001   1.222   2.256 -1.5679 -0.5172  1.3074
  349DOPC  H14C48036   5.890   1.332   2.318 -1.4300 -2.5394  0.9695
  349DOPC   C1548037   6.046   1.364   2.014  0.4694 -0.3644  0.0370
  349DOPC  H15A48038   6.104   1.442   1.968 -2.1562 -0.3288 -3.6029
  349DOPC  H15B48039   5.971   1.328   1.945 -0.9300  0.9622  0.7905
  349DOPC  H15C48040   6.105   1.276   2.037  2.7856  0.8584 -0.8663
  349DOPC   C1148041   6.031   1.527   2.375  0.4915 -0.5079 -0.2688
  349DOPC  H11A48042   6.101   1.588   2.436 -1.0283  1.6276 -0.5555
  349DOPC  H11B48043   5.945   1.597   2.374  0.1373 -0.9260 -1.9769
  349DOPC     P48044   6.087   1.345   2.543 -0.0787  0.1930  0.5129
  349DOPC   O1348045   6.224   1.348   2.487  0.2350  0.2535  0.4250
  349DOPC   O1448046   6.038   1.210   2.567  0.2793  0.4297  0.1783
  349DOPC   O1248047   5.980   1.422   2.450 -0.3739  0.5788  1.1110
  349DOPC   O1148048   6.088   1.430   2.670 -0.0758  0.3155 -0.4612
  349DOPC    C148049   5.984   1.511   2.731  0.1419 -0.1685 -0.4623
  349DOPC    HA48050   5.894   1.515   2.665 -0.9300  1.0100  1.0042
  349DOPC    HB48051   6.020   1.616   2.737 -0.4529  0.0104  0.0790
  349DOPC    C248052   5.962   1.458   2.869 -0.0895  0.0040 -0.0541
  349DOPC    HS48053   5.902   1.529   2.931  0.6631  0.1485  0.5190
  349DOPC   O2148054   6.087   1.421   2.931  0.1317 -0.2159  0.4682
  349DOPC   C2148055   6.166   1.516   2.972 -0.0399  0.3537  0.3552
  349DOPC   O2248056   6.152   1.636   2.957  0.5742  0.5161  0.3125
  349DOPC   C2248057   6.291   1.454   3.021 -0.5044 -0.3751  0.4388
  349DOPC   H2R48058   6.363   1.476   2.940 -0.5236 -0.2760  0.4480
  349DOPC   H2S48059   6.289   1.347   3.052  1.4056  0.3188  3.3111
  349DOPC    C348060   5.868   1.333   2.858 -0.2398 -0.8016  0.1792
  349DOPC    HX48061   5.928   1.267   2.791  1.2577  0.5517  0.1249
  349DOPC    HY48062   5.780   1.362   2.796 -0.7282 -1.9001  0.3426
  349DOPC   O3148063   5.832   1.277   2.986  0.6329 -1.1597  0.0660
  349DOPC   C3148064   5.792   1.153   2.980 -0.8798 -0.5418  0.1408
  349DOPC   O3248065   5.780   1.091   2.880  0.1788  0.6344  0.0962
  349DOPC   C3248066   5.743   1.100   3.118 -0.6538 -0.2719 -0.4331
  349DOPC   H2X48067   5.639   1.136   3.134 -0.4496 -0.0234  0.3559
  349DOPC   H2Y48068   5.733   0.990   3.107 -0.6695 -0.5350  1.8363
  349DOPC   C2348069   6.354   1.517   3.151 -0.3030  0.0756 -0.1245
  349DOPC   H3R48070   6.331   1.625   3.158 -2.5785 -0.3124 -0.9280
  349DOPC   H3S48071   6.465   1.503   3.150 -0.2153  0.2213  2.2413
  349DOPC   C2448072   6.289   1.464   3.286  0.0570  0.2434  0.0005
  349DOPC   H4R48073   6.342   1.372   3.321 -0.0221 -0.3397 -1.3684
  349DOPC   H4S48074   6.186   1.426   3.267  0.5644 -0.4066 -1.6285
  349DOPC   C2548075   6.277   1.571   3.396 -0.0866  0.2849 -0.3398
  349DOPC   H5R48076   6.196   1.639   3.362  0.6299  0.8150 -1.0535
  349DOPC   H5S48077   6.369   1.634   3.401  0.0689  0.0797 -0.5900
  349DOPC   C2648078   6.268   1.509   3.540  0.2188 -0.0946  0.5575
  349DOPC   H6R48079   6.183   1.438   3.539  1.1613 -1.2594  0.9618
  349DOPC   H6S48080   6.245   1.588   3.616 -3.5633 -1.3823  0.9933
  349DOPC   C2748081   6.401   1.441   3.575  0.1382 -0.4540 -0.0665
  349DOPC   H7R48082   6.482   1.518   3.580  0.2956 -0.6504  0.4512
  349DOPC   H7S48083   6.439   1.370   3.498  2.4808 -0.2904  0.8614
  349DOPC   C2848084   6.380   1.377   3.717 -0.4402  0.2571  0.3068
  349DOPC   H8R48085   6.285   1.321   3.703 -0.4786  0.5198 -0.5444
  349DOPC   H8S48086   6.358   1.464   3.782 -0.4620  0.8195 -0.4437
  349DOPC   C2948087   6.501   1.302   3.761 -0.2614 -0.2743  0.9600
  349DOPC   H9R48088   6.581   1.318   3.687  1.3813  0.6063  2.8437
  349DOPC  C21048089   6.524   1.238   3.874  0.1193  0.0798  0.2897
  349DOPC  H10R48090   6.617   1.185   3.899 -0.4899 -1.9527 -1.4278
  349DOPC  C21148091   6.429   1.219   3.985  0.4973 -0.9898  0.0514
  349DOPC  H11R48092   6.328   1.185   3.955  0.1108 -0.8519  1.1490
  349DOPC  H11S48093   6.405   1.318   4.030 -1.2697 -1.1550 -0.4604
  349DOPC  C21248094   6.483   1.123   4.085 -0.4290  0.0411 -0.2152
  349DOPC  H12R48095   6.583   1.160   4.115  0.0371 -0.1158 -1.5202
  349DOPC  H12S48096   6.497   1.020   4.045 -0.9909 -0.3301  0.5068
  349DOPC  C21348097   6.389   1.118   4.203  0.5752 -0.1899 -0.1768
  349DOPC  H13R48098   6.299   1.055   4.182 -1.2264  2.7020 -1.8453
  349DOPC  H13S48099   6.348   1.217   4.233 -1.3077 -0.7277 -0.7729
  349DOPC  C21448100   6.453   1.040   4.319 -0.2156 -0.2801  0.0437
  349DOPC  H14R48101   6.508   0.955   4.273  0.0057 -0.2113  0.1754
  349DOPC  H14S48102   6.385   0.997   4.395  0.1523 -2.0649 -0.6053
  349DOPC  C21548103   6.546   1.131   4.408  0.6913  0.6832  0.1847
  349DOPC  H15R48104   6.619   1.185   4.344  2.5170 -0.3213  1.3372
  349DOPC  H15S48105   6.595   1.053   4.470  0.4645 -0.2442 -0.7798
  349DOPC  C21648106   6.464   1.212   4.506  0.7181 -0.3442 -0.0452
  349DOPC  H16R48107   6.409   1.142   4.571  2.7470 -3.6424 -1.5994
  349DOPC  H16S48108   6.388   1.276   4.455  2.7176  0.5010 -2.1811
  349DOPC  C21748109   6.549   1.294   4.605  0.3189  0.1912  0.5112
  349DOPC  H17R48110   6.601   1.373   4.547 -1.3232  2.6916  2.2205
  349DOPC  H17S48111   6.617   1.218   4.648  1.1886 -1.0233 -2.7299
  349DOPC  C21848112   6.458   1.367   4.705 -0.4682 -0.0651  0.3255
  349DOPC  H18R48113   6.375   1.420   4.653 -0.6713  0.4436  1.1587
  349DOPC  H18S48114   6.512   1.435   4.773 -2.1340  2.3510 -0.6203
  349DOPC  H18T48115   6.411   1.290   4.770  1.0652 -0.5050  0.9699
  349DOPC   C3348116   5.831   1.142   3.243 -0.2520  0.5998 -0.1357
  349DOPC   H3X48117   5.786   1.101   3.335 -0.3948  0.9081 -0.0682
  349DOPC   H3Y48118   5.831   1.251   3.260 -0.7589  0.4693  0.7617
  349DOPC   C3448119   5.981   1.102   3.233  1.0617  0.1429 -0.2971
  349DOPC   H4X48120   6.013   1.140   3.134 -3.4427 -2.4844 -3.1401
  349DOPC   H4Y48121   5.984   0.991   3.219  1.0600  0.1141 -0.0678
  349DOPC   C3548122   6.055   1.136   3.358  0.1023  0.1222 -0.0016
  349DOPC   H5X48123   5.999   1.081   3.438  2.9681 -2.3842  0.4521
  349DOPC   H5Y48124   6.047   1.246   3.372 -0.2441  0.2701 -1.2926
  349DOPC   C3648125   6.207   1.114   3.353 -0.5287 -0.0165  0.8379
  349DOPC   H6X48126   6.241   1.114   3.247  0.9333  0.2487  1.2986
  349DOPC   H6Y48127   6.257   1.200   3.401 -1.0460  0.8741 -0.1791
  349DOPC   C3748128   6.244   0.985   3.429  0.2972  0.1939  0.5482
  349DOPC   H7X48129   6.232   1.011   3.536  1.3321 -0.4891  0.8441
  349DOPC   H7Y48130   6.167   0.909   3.406  1.4299 -1.3433  1.6489
  349DOPC   C3848131   6.385   0.922   3.396 -0.5184 -0.2864  0.9193
  349DOPC   H8X48132   6.384   0.833   3.462 -1.2391 -1.3621 -0.4808
  349DOPC   H8Y48133   6.469   0.990   3.419  0.8197 -0.8820 -1.7314
  349DOPC   C3948134   6.381   0.877   3.249 -0.7329 -0.3292  0.2630
  349DOPC   H9X48135   6.348   0.953   3.176 -1.0853 -0.2665  0.4838
  349DOPC  C31048136   6.417   0.762   3.207 -0.7350 -0.0592  0.3782
  349DOPC  H10X48137   6.404   0.731   3.102 -4.1034  1.6224  0.1598
  349DOPC  C31148138   6.484   0.655   3.291 -0.3357  0.2853 -0.5456
  349DOPC  H11X48139   6.536   0.700   3.378  1.2333 -1.9168 -0.2490
  349DOPC  H11Y48140   6.572   0.610   3.240 -0.4399 -0.7620  0.1792
  349DOPC  C31248141   6.399   0.531   3.334 -0.2589  0.2017  0.0291
  349DOPC  H12X48142   6.322   0.561   3.408  0.5627 -0.0379  0.9908
  349DOPC  H12Y48143   6.474   0.467   3.383  0.5803 -1.0610 -2.6862
  349DOPC  C31348144   6.363   0.449   3.212  0.1515  0.0444  0.0815
  349DOPC  H13X48145   6.289   0.512   3.158 -0.1960 -0.0083  0.4929
  349DOPC  H13Y48146   6.447   0.442   3.140 -0.1494  0.9782 -0.3794
  349DOPC  C31448147   6.286   0.320   3.232  0.2354 -0.6495 -0.4590
  349DOPC  H14X48148   6.217   0.333   3.318  1.6785  1.2654  0.4790
  349DOPC  H14Y48149   6.227   0.315   3.138  0.4079 -0.0679 -0.6014
  349DOPC  C31548150   6.374   0.195   3.230  0.0448  0.0220 -0.1473
  349DOPC  H15X48151   6.436   0.211   3.139 -1.8235  0.7692 -1.3548
  349DOPC  H15Y48152   6.321   0.100   3.208 -1.2808  1.2624 -2.7409
  349DOPC  C31648153   6.468   0.180   3.349 -0.6759  0.1754  0.9366
  349DOPC  H16X48154   6.550   0.254   3.341 -0.9991  0.3545 -2.0219
  349DOPC  H16Y48155   6.421   0.208   3.445 -0.7530 -0.4471  1.0836
  349DOPC  C31748156   6.526   0.042   3.355 -0.3099  0.3207  0.4778
  349DOPC  H17X48157   6.441  -0.024   3.383 -0.4749  0.5426  0.5023
  349DOPC  H17Y48158   6.574   0.018   3.257 -2.8507  2.7496 -1.5247
  349DOPC  C31848159   6.628   0.037   3.463  0.0707 -0.1994 -0.5462
  349DOPC  H18X48160   6.583   0.086   3.552  2.0334  4.0977 -1.6607
  349DOPC  H18Y48161   6.653  -0.066   3.497 -2.6800  0.1027  2.9454
  349DOPC  H18Z48162   6.724   0.087   3.439  1.2147 -1.8701  0.3282
  350DOPC     N48163   6.166   6.175   2.281  0.0966  0.1434 -0.1974
  350DOPC   C1248164   6.028   6.136   2.331 -0.1929  0.6570  0.3152
  350DOPC  H12A48165   5.964   6.223   2.325  0.3402  1.0959  0.8593
  350DOPC  H12B48166   6.032   6.096   2.431  1.8917  0.0375  0.0369
  350DOPC   C1348167   6.230   6.271   2.371 -0.0009 -0.0192  0.6350
  350DOPC  H13A48168   6.255   6.229   2.467  1.9536  2.5590  1.3849
  350DOPC  H13B48169   6.321   6.304   2.323  1.9662 -1.9542  2.7844
  350DOPC  H13C48170   6.165   6.354   2.397  0.9252  1.1918 -0.7761
  350DOPC   C1448171   6.145   6.245   2.146  0.2111  0.3103 -0.0445
  350DOPC  H14A48172   6.075   6.197   2.079  0.3017 -1.0351  0.7843
  350DOPC  H14B48173   6.099   6.341   2.166 -0.2816  0.1683 -0.4723
  350DOPC  H14C48174   6.240   6.257   2.096 -0.1904 -0.2031 -0.9695
  350DOPC   C1548175   6.257   6.059   2.255  0.5932  0.9594 -0.0978
  350DOPC  H15A48176   6.348   6.093   2.209  0.6852  2.3998  1.0901
  350DOPC  H15B48177   6.211   5.974   2.206  4.9613 -0.9875 -1.2682
  350DOPC  H15C48178   6.274   6.006   2.347  5.1936 -0.4837 -1.5191
  350DOPC   C1148179   5.953   6.027   2.246 -0.2554 -0.1092  0.0255
  350DOPC  H11A48180   5.848   6.015   2.281 -0.4065  1.3511  0.1350
  350DOPC  H11B48181   5.933   6.056   2.141 -0.6748  1.7165  0.5776
  350DOPC     P48182   5.998   5.777   2.314  0.0897 -0.0838  0.4119
  350DOPC   O1348183   6.097   5.671   2.287 -0.4057  0.3429 -0.0471
  350DOPC   O1448184   5.854   5.747   2.298 -0.0679  0.5092  0.1634
  350DOPC   O1248185   6.032   5.904   2.230 -0.2362  0.6550  0.0725
  350DOPC   O1148186   6.022   5.831   2.458  0.6081 -0.7569 -0.1365
  350DOPC    C148187   6.121   5.786   2.542 -0.4590 -0.3193  0.5382
  350DOPC    HA48188   6.221   5.814   2.502 -0.7915  0.1214  0.0028
  350DOPC    HB48189   6.128   5.675   2.538  0.2344 -0.2951  1.0088
  350DOPC    C248190   6.107   5.840   2.688  0.0041  0.4690  0.8576
  350DOPC    HS48191   6.149   5.769   2.762  0.1402  0.8212  1.1208
  350DOPC   O2148192   5.972   5.862   2.720  0.0252 -0.0972  0.1056
  350DOPC   C2148193   5.897   5.751   2.708  0.1741 -0.3198  0.2747
  350DOPC   O2248194   5.933   5.640   2.696 -0.1924  0.5888 -0.0960
  350DOPC   C2248195   5.756   5.805   2.709  0.0859  0.0758  0.1196
  350DOPC   H2R48196   5.692   5.715   2.720 -1.2478  0.8082 -1.1590
  350DOPC   H2S48197   5.740   5.847   2.607 -3.4606 -1.3242 -0.0483
  350DOPC    C348198   6.184   5.968   2.696 -0.0134 -1.2941 -0.2609
  350DOPC    HX48199   6.145   6.025   2.608  1.6671  0.3717 -0.0033
  350DOPC    HY48200   6.293   5.944   2.697 -0.0247 -1.3298  0.2648
  350DOPC   O3148201   6.148   6.037   2.823  0.5526  0.1052  0.0992
  350DOPC   C3148202   6.149   6.169   2.806  0.0285  0.4644  0.6841
  350DOPC   O3248203   6.179   6.226   2.704 -0.0049  0.0405 -0.2818
  350DOPC   C3248204   6.099   6.231   2.933 -0.2158 -0.0244 -0.3257
  350DOPC   H2X48205   6.094   6.152   3.011  2.3538 -0.5224 -0.5925
  350DOPC   H2Y48206   6.170   6.312   2.959  1.8419 -0.9995 -2.5925
  350DOPC   C2348207   5.726   5.907   2.818  0.4473  0.1541  0.4132
  350DOPC   H3R48208   5.768   6.008   2.796 -1.4618  1.0986  0.8978
  350DOPC   H3S48209   5.761   5.865   2.914 -1.0299 -1.5152  0.2778
  350DOPC   C2448210   5.577   5.919   2.828 -0.0996 -0.3075 -0.0786
  350DOPC   H4R48211   5.538   5.829   2.880 -3.1790  0.7190 -0.3680
  350DOPC   H4S48212   5.521   5.927   2.732  0.7277  2.1619 -0.4281
  350DOPC   C2548213   5.528   6.040   2.907  0.3801 -0.5662  0.2714
  350DOPC   H5R48214   5.418   6.027   2.918  0.3737 -0.0487  0.9188
  350DOPC   H5S48215   5.542   6.135   2.850 -2.1005  0.1497  0.6951
  350DOPC   C2648216   5.591   6.062   3.051  0.0053 -0.8675  0.2973
  350DOPC   H6R48217   5.560   6.165   3.081  0.1847 -0.4689 -0.8446
  350DOPC   H6S48218   5.701   6.055   3.052  0.1421  0.2049 -1.7476
  350DOPC   C2748219   5.529   5.983   3.162  0.5040  0.5683 -0.1859
  350DOPC   H7R48220   5.554   5.875   3.157 -0.0622  0.4595 -0.8893
  350DOPC   H7S48221   5.418   5.981   3.154  0.5943 -1.2111 -1.5910
  350DOPC   C2848222   5.567   6.039   3.306  0.9496  1.0596  0.1244
  350DOPC   H8R48223   5.533   6.144   3.307  0.3211  0.8561  0.4473
  350DOPC   H8S48224   5.677   6.028   3.313  0.7230 -1.4099  0.6852
  350DOPC   C2948225   5.490   5.965   3.416  0.3899  0.0451 -0.1188
  350DOPC   H9R48226   5.511   5.858   3.429  1.0798  0.3529  1.5589
  350DOPC  C21048227   5.407   6.013   3.516  0.2076 -0.6246  0.5893
  350DOPC  H10R48228   5.369   5.942   3.591  1.4355  0.2191  2.0573
  350DOPC  C21148229   5.356   6.150   3.533  0.0224 -0.1624 -0.4386
  350DOPC  H11R48230   5.248   6.145   3.560  0.4375 -2.1646  1.0482
  350DOPC  H11S48231   5.371   6.212   3.441  0.7155  0.3671  0.0211
  350DOPC  C21248232   5.413   6.246   3.646 -0.2488  0.4819  0.7863
  350DOPC  H12R48233   5.357   6.213   3.736 -2.6463 -0.6815 -1.0053
  350DOPC  H12S48234   5.394   6.354   3.629 -2.0515  0.1077  0.2450
  350DOPC  C21348235   5.566   6.222   3.653 -0.2775  0.3975  0.4097
  350DOPC  H13R48236   5.612   6.246   3.555 -2.5358  1.5833 -0.4211
  350DOPC  H13S48237   5.596   6.123   3.694 -0.9385 -0.4521 -1.0961
  350DOPC  C21448238   5.631   6.315   3.750 -0.1914 -0.3300 -0.0837
  350DOPC  H14R48239   5.593   6.419   3.737  2.6015  1.2533  2.7831
  350DOPC  H14S48240   5.742   6.313   3.739 -0.1195  0.9002  0.2226
  350DOPC  C21548241   5.585   6.281   3.901 -0.7334 -0.2790  0.0034
  350DOPC  H15R48242   5.566   6.171   3.901  0.5730 -0.5646 -2.0046
  350DOPC  H15S48243   5.483   6.320   3.919 -1.7652 -2.4934 -0.6192
  350DOPC  C21648244   5.681   6.338   4.010 -0.3677 -0.8269 -0.1008
  350DOPC  H16R48245   5.625   6.350   4.105  0.0070 -0.4752  0.0804
  350DOPC  H16S48246   5.719   6.436   3.973  0.9731 -1.8899 -1.6699
  350DOPC  C21748247   5.807   6.250   4.036 -0.4227 -0.4157  0.2055
  350DOPC  H17R48248   5.863   6.214   3.947  4.3030  2.4856  1.6648
  350DOPC  H17S48249   5.760   6.161   4.084 -1.9519 -0.5054 -1.3628
  350DOPC  C21848250   5.902   6.315   4.137 -0.1382 -0.7890 -0.3652
  350DOPC  H18R48251   5.927   6.420   4.115 -0.7802  0.1616  2.8502
  350DOPC  H18S48252   5.998   6.258   4.142 -0.3906 -1.1078  1.7193
  350DOPC  H18T48253   5.857   6.317   4.239 -2.2325 -0.5671 -1.2565
  350DOPC   C3348254   5.958   6.290   2.917  0.3684 -0.0809  0.5222
  350DOPC   H3X48255   5.883   6.211   2.898 -0.1124  0.1200  1.5057
  350DOPC   H3Y48256   5.945   6.368   2.839 -0.0820  0.3658  1.0351
  350DOPC   C3448257   5.913   6.354   3.054 -0.0264 -0.2084  0.1837
  350DOPC   H4X48258   5.809   6.393   3.050 -0.1263 -0.5717 -2.5957
  350DOPC   H4Y48259   5.975   6.446   3.064  0.2036 -0.0354 -2.2838
  350DOPC   C3548260   5.936   6.265   3.178 -0.2887 -0.2363  0.0059
  350DOPC   H5X48261   6.034   6.214   3.188 -0.3421 -0.5433 -0.9408
  350DOPC   H5Y48262   5.865   6.180   3.174  1.1558 -1.4347 -1.7087
  350DOPC   C3648263   5.903   6.346   3.298 -0.1072 -0.0459  0.2231
  350DOPC   H6X48264   5.991   6.408   3.325  1.4274 -3.0202  2.7263
  350DOPC   H6Y48265   5.821   6.415   3.272 -1.2084 -0.8305  1.4812
  350DOPC   C3748266   5.859   6.271   3.434 -0.2581  0.0218  0.3080
  350DOPC   H7X48267   5.804   6.343   3.498 -0.4522  0.9607 -0.8795
  350DOPC   H7Y48268   5.792   6.183   3.418  2.9277 -2.9213  1.8516
  350DOPC   C3848269   5.991   6.216   3.512  0.2015 -0.3385 -0.2771
  350DOPC   H8X48270   6.064   6.297   3.535 -0.8962  1.0183 -1.3609
  350DOPC   H8Y48271   6.033   6.136   3.447 -0.3092 -2.3189  1.7158
  350DOPC   C3948272   5.952   6.151   3.640 -0.0136 -0.3644  0.0132
  350DOPC   H9X48273   5.938   6.233   3.712  0.0160 -0.5513  0.2326
  350DOPC  C31048274   5.943   6.020   3.670  0.5709  0.2218 -0.2736
  350DOPC  H10X48275   5.909   5.989   3.769  2.2893  2.3896  1.0856
  350DOPC  C31148276   5.973   5.913   3.567  0.1506 -0.2872  0.4732
  350DOPC  H11X48277   5.979   5.951   3.463 -1.1887  0.6950  0.7359
  350DOPC  H11Y48278   5.893   5.836   3.576 -1.2897  1.3251  2.3113
  350DOPC  C31248279   6.105   5.855   3.603 -0.3940  0.3404 -0.4516
  350DOPC  H12X48280   6.098   5.806   3.702 -3.1418  1.1177 -0.1795
  350DOPC  H12Y48281   6.177   5.940   3.597  0.6533 -0.4932 -0.0406
  350DOPC  C31348282   6.151   5.747   3.505  0.0971  0.0094  0.2470
  350DOPC  H13X48283   6.063   5.682   3.481 -0.4562  0.3710  1.2315
  350DOPC  H13Y48284   6.184   5.793   3.410 -0.8107 -1.7251 -0.9735
  350DOPC  C31448285   6.264   5.656   3.559 -0.2028 -0.1948 -0.2920
  350DOPC  H14X48286   6.355   5.718   3.574  0.4450 -1.1725 -0.1265
  350DOPC  H14Y48287   6.237   5.630   3.664  0.8331  0.7866  0.2393
  350DOPC  C31548288   6.303   5.535   3.471 -0.6885 -0.1500 -0.9773
  350DOPC  H15X48289   6.397   5.490   3.508 -2.5517 -3.3344  0.3044
  350DOPC  H15Y48290   6.322   5.566   3.366 -1.4912  0.3038 -0.9979
  350DOPC  C31648291   6.188   5.431   3.452 -0.4249  0.8715 -0.4397
  350DOPC  H16X48292   6.154   5.383   3.546  0.7838  1.2156  0.1945
  350DOPC  H16Y48293   6.097   5.486   3.421 -1.0470 -0.9012 -1.9899
  350DOPC  C31748294   6.230   5.316   3.364  0.1378 -0.4612 -0.2323
  350DOPC  H17X48295   6.138   5.278   3.314 -0.1427  0.3684 -0.3664
  350DOPC  H17Y48296   6.290   5.357   3.279  0.9600 -0.4494  0.3442
  350DOPC  C31848297   6.301   5.206   3.438  0.2285  0.0986  0.3302
  350DOPC  H18X48298   6.307   5.112   3.380  0.5034 -0.7183  1.6330
  350DOPC  H18Y48299   6.404   5.236   3.467  0.5285 -0.4463 -0.1603
  350DOPC  H18Z48300   6.249   5.168   3.529 -0.4064 -1.4445 -0.6419
  351DOPC     N48301   4.558   5.146   1.578  0.0473 -0.3486  0.2861
  351DOPC   C1248302   4.591   5.044   1.693 -0.1441 -1.0549  0.0876
  351DOPC  H12A48303   4.690   5.059   1.733 -1.0749 -1.3558  2.7120
  351DOPC  H12B48304   4.581   4.939   1.671 -1.7372 -0.9276  0.0777
  351DOPC   C1348305   4.530   5.283   1.636  0.2267  0.0512 -0.4830
  351DOPC  H13A48306   4.627   5.324   1.662 -0.2220  0.2966  0.8837
  351DOPC  H13B48307   4.485   5.345   1.560 -1.2652  0.3954  0.6410
  351DOPC  H13C48308   4.457   5.272   1.714  0.0815  0.8572 -0.4965
  351DOPC   C1448309   4.433   5.103   1.501  0.5076  0.2215  0.0594
  351DOPC  H14A48310   4.349   5.116   1.567  0.0868  1.4541 -0.6700
  351DOPC  H14B48311   4.416   5.167   1.415  0.3289 -0.3750 -0.3537
  351DOPC  H14C48312   4.438   4.999   1.472  0.2697  0.6211 -1.5413
  351DOPC   C1548313   4.660   5.155   1.469  0.3938 -0.0301 -0.6816
  351DOPC  H15A48314   4.642   5.219   1.384  1.2895  1.7187  0.3817
  351DOPC  H15B48315   4.675   5.055   1.431 -0.1846 -0.4861  0.2727
  351DOPC  H15C48316   4.756   5.181   1.512 -0.5658 -0.8267  2.1623
  351DOPC   C1148317   4.508   5.066   1.820  0.4345  0.2558 -0.1525
  351DOPC  H11A48318   4.540   4.984   1.889 -0.4552  1.9477  2.4466
  351DOPC  H11B48319   4.518   5.162   1.875 -1.3813 -0.5805  1.7751
  351DOPC     P48320   4.280   4.925   1.828  0.1763 -0.1158 -0.3024
  351DOPC   O1348321   4.376   4.815   1.846 -0.4881  0.2552 -0.4929
  351DOPC   O1448322   4.176   4.920   1.726  0.2193  0.0768  0.2799
  351DOPC   O1248323   4.368   5.056   1.785  0.6409 -0.4706 -0.0386
  351DOPC   O1148324   4.210   4.957   1.970  0.5550 -0.2265 -0.0258
  351DOPC    C148325   4.233   5.087   2.032 -0.1017 -0.2179 -0.1555
  351DOPC    HA48326   4.175   5.158   1.969 -1.2036 -0.5804  0.4168
  351DOPC    HB48327   4.340   5.118   2.038 -0.5523  1.3962  0.1249
  351DOPC    C248328   4.162   5.091   2.174 -0.0802 -0.2868 -0.0891
  351DOPC    HS48329   4.164   5.194   2.217 -0.1828 -0.3534  0.0747
  351DOPC   O2148330   4.232   4.992   2.251 -0.0646  0.0078 -0.4269
  351DOPC   C2148331   4.342   5.050   2.313 -0.0988  0.4026  0.1635
  351DOPC   O2248332   4.382   5.159   2.306 -0.5119  0.0719 -0.2007
  351DOPC   C2248333   4.380   4.957   2.424 -0.5224 -0.3292 -0.4888
  351DOPC   H2R48334   4.465   4.900   2.381  1.1926  0.6192  1.4344
  351DOPC   H2S48335   4.296   4.889   2.450 -0.8970 -0.0067 -0.8507
  351DOPC    C348336   4.009   5.057   2.157  0.2040  0.2552  0.0533
  351DOPC    HX48337   3.999   4.956   2.114 -0.4931 -0.7043  2.3171
  351DOPC    HY48338   3.973   5.136   2.088 -2.3041 -0.7132  0.1382
  351DOPC   O3148339   3.942   5.074   2.287 -0.0276  0.1472  0.2860
  351DOPC   C3148340   3.951   4.964   2.355 -0.2020 -1.0070  0.1361
  351DOPC   O3248341   3.989   4.856   2.308  0.0454  0.6245  0.4720
  351DOPC   C3248342   3.900   4.992   2.497 -0.0811 -0.9101 -0.3542
  351DOPC   H2X48343   3.809   4.930   2.516  1.2079 -2.4241  1.3773
  351DOPC   H2Y48344   3.980   4.959   2.567  0.1615 -0.2194 -0.3090
  351DOPC   C2348345   4.429   5.026   2.558  0.1574 -0.1835 -0.0790
  351DOPC   H3R48346   4.500   5.108   2.534  0.7116 -1.2041 -2.1544
  351DOPC   H3S48347   4.499   4.960   2.615 -0.3503  0.1959  1.0156
  351DOPC   C2448348   4.318   5.080   2.647 -0.0614  0.7488 -0.7860
  351DOPC   H4R48349   4.256   4.993   2.676 -0.4618  1.3237  0.1375
  351DOPC   H4S48350   4.256   5.148   2.584  1.4110  2.6886 -0.2420
  351DOPC   C2548351   4.373   5.173   2.759  0.6059  0.6504  0.3472
  351DOPC   H5R48352   4.428   5.253   2.705  0.3766  0.5288 -0.0748
  351DOPC   H5S48353   4.449   5.114   2.814 -0.5591 -1.0578  0.2048
  351DOPC   C2648354   4.267   5.242   2.855 -0.0320  0.1680 -0.1071
  351DOPC   H6R48355   4.239   5.163   2.927 -1.6903  0.7053 -0.1169
  351DOPC   H6S48356   4.180   5.287   2.803 -0.5939  2.8824  2.8861
  351DOPC   C2748357   4.338   5.365   2.927  0.3447  0.8329 -0.7067
  351DOPC   H7R48358   4.306   5.450   2.863  0.7145 -0.6553 -2.9996
  351DOPC   H7S48359   4.448   5.350   2.925  0.4520  1.3607  0.4593
  351DOPC   C2848360   4.302   5.391   3.075  0.0591  0.6987 -0.3099
  351DOPC   H8R48361   4.373   5.466   3.114  0.1227  0.2082  0.5519
  351DOPC   H8S48362   4.330   5.309   3.145 -0.1274  0.8904 -0.0106
  351DOPC   C2948363   4.160   5.443   3.101 -0.6354  0.6544 -0.1132
  351DOPC   H9R48364   4.146   5.550   3.081 -0.1771  0.5852 -0.8540
  351DOPC  C21048365   4.076   5.382   3.181  0.1923  0.2813 -0.1444
  351DOPC  H10R48366   3.978   5.431   3.175  0.5846  1.0876 -0.0199
  351DOPC  C21148367   4.067   5.241   3.238  0.7868  0.2739 -0.4018
  351DOPC  H11R48368   4.042   5.258   3.345 -0.2187  0.8425 -0.7238
  351DOPC  H11S48369   4.167   5.193   3.245  0.4411 -0.4098  0.0124
  351DOPC  C21248370   3.984   5.133   3.179  1.2118 -0.3721 -0.5265
  351DOPC  H12R48371   3.986   5.038   3.237  1.6193 -0.4708 -0.7009
  351DOPC  H12S48372   4.017   5.119   3.074  2.8937  0.7630 -0.1948
  351DOPC  C21348373   3.838   5.175   3.169  0.0808  0.3416 -0.0982
  351DOPC  H13R48374   3.801   5.114   3.083  1.0692 -1.4505  0.6895
  351DOPC  H13S48375   3.835   5.284   3.150 -0.0139  0.4498  0.5368
  351DOPC  C21448376   3.762   5.149   3.297 -0.2306 -0.2900 -0.2650
  351DOPC  H14R48377   3.802   5.222   3.370 -1.9727  1.8993 -1.3621
  351DOPC  H14S48378   3.774   5.045   3.333 -0.6041  0.5561  2.5871
  351DOPC  C21548379   3.606   5.175   3.281 -0.1368  0.0790 -0.1631
  351DOPC  H15R48380   3.564   5.106   3.205 -0.3248 -0.9364  0.8477
  351DOPC  H15S48381   3.596   5.283   3.256 -0.2994 -0.1955 -1.3526
  351DOPC  C21648382   3.530   5.153   3.409 -0.5531 -0.2060  0.1996
  351DOPC  H16R48383   3.546   5.050   3.445 -0.7158 -0.1009  0.5775
  351DOPC  H16S48384   3.421   5.165   3.391 -0.5837 -0.3994  0.2548
  351DOPC  C21748385   3.580   5.249   3.520 -0.2436 -0.3959  0.2403
  351DOPC  H17R48386   3.561   5.356   3.496  1.1496 -0.0932  0.3927
  351DOPC  H17S48387   3.687   5.236   3.549 -0.0320  2.1417  0.8486
  351DOPC  C21848388   3.501   5.226   3.648  0.6329 -0.3738  0.6171
  351DOPC  H18R48389   3.391   5.224   3.630  0.5297 -2.0779  1.2640
  351DOPC  H18S48390   3.522   5.313   3.713  0.3960  0.1972 -0.0605
  351DOPC  H18T48391   3.536   5.136   3.703  0.9957 -0.1492  0.7539
  351DOPC   C3348392   3.888   5.135   2.530  1.0391  0.0781 -0.1598
  351DOPC   H3X48393   3.798   5.174   2.479  1.2392  1.1498  0.2695
  351DOPC   H3Y48394   3.976   5.197   2.502  1.0890  0.1621  0.1814
  351DOPC   C3448395   3.857   5.148   2.680  0.2743  0.2182 -0.0305
  351DOPC   H4X48396   3.950   5.164   2.738 -0.6341 -1.5967  2.0870
  351DOPC   H4Y48397   3.811   5.059   2.727  0.0344  0.3201 -0.0704
  351DOPC   C3548398   3.749   5.259   2.711  0.5418  0.1635 -0.2552
  351DOPC   H5X48399   3.653   5.236   2.658 -1.3669  1.3692  2.4426
  351DOPC   H5Y48400   3.789   5.361   2.693  0.4733  0.2338 -0.0128
  351DOPC   C3648401   3.708   5.264   2.861 -0.1062  0.3517 -0.5386
  351DOPC   H6X48402   3.666   5.163   2.878 -0.5237  0.7783  1.1424
  351DOPC   H6Y48403   3.802   5.281   2.917 -0.0312  1.3958 -0.9531
  351DOPC   C3748404   3.615   5.376   2.897 -0.6132  0.1113 -0.9082
  351DOPC   H7X48405   3.624   5.386   3.007 -2.1333  3.1372 -0.9567
  351DOPC   H7Y48406   3.652   5.467   2.843 -0.8152  0.6540 -0.1468
  351DOPC   C3848407   3.464   5.335   2.881 -0.2444 -0.3996 -0.1113
  351DOPC   H8X48408   3.437   5.247   2.944 -0.8972 -0.9113 -1.0865
  351DOPC   H8Y48409   3.450   5.298   2.777 -0.7078 -0.8685  0.1135
  351DOPC   C3948410   3.381   5.462   2.905 -0.5653  1.0070  0.0504
  351DOPC   H9X48411   3.390   5.549   2.838 -1.6786  0.5344 -0.7543
  351DOPC  C31048412   3.291   5.477   3.006 -0.0993 -0.2371 -0.1865
  351DOPC  H10X48413   3.222   5.563   3.012  0.4301  0.1868 -0.1521
  351DOPC  C31148414   3.253   5.394   3.124 -0.8615  0.2359 -0.3122
  351DOPC  H11X48415   3.316   5.302   3.130  0.5648  1.1376 -0.9468
  351DOPC  H11Y48416   3.144   5.369   3.125 -0.5980 -1.0341  1.6714
  351DOPC  C31248417   3.276   5.481   3.246 -0.4778 -1.1741  0.0983
  351DOPC  H12X48418   3.252   5.588   3.227  2.0628 -0.4207  0.7322
  351DOPC  H12Y48419   3.386   5.489   3.261 -0.6211 -0.7418  0.9881
  351DOPC  C31348420   3.204   5.428   3.364 -0.2557  0.0458 -0.0273
  351DOPC  H13X48421   3.093   5.425   3.354 -0.6858  3.7935  2.0894
  351DOPC  H13Y48422   3.248   5.328   3.383  1.1416  0.8234  0.9948
  351DOPC  C31448423   3.236   5.502   3.499  0.1493  0.1978  0.3303
  351DOPC  H14X48424   3.345   5.506   3.516  0.5176  1.4340 -1.9157
  351DOPC  H14Y48425   3.198   5.606   3.500 -0.8848 -0.1657  0.2129
  351DOPC  C31548426   3.176   5.430   3.618  0.0430 -0.5356 -0.5441
  351DOPC  H15X48427   3.196   5.321   3.611  0.1935 -0.4542 -1.4953
  351DOPC  H15Y48428   3.066   5.436   3.609  0.2431  1.5548 -2.4279
  351DOPC  C31648429   3.225   5.491   3.755 -0.1511 -0.3524  0.2432
  351DOPC  H16X48430   3.335   5.496   3.770 -0.3066  0.2983  1.2879
  351DOPC  H16Y48431   3.183   5.593   3.760 -0.7030 -0.4765 -1.3091
  351DOPC  C31748432   3.168   5.413   3.872  0.1940  0.3189  0.0971
  351DOPC  H17X48433   3.057   5.409   3.868  0.0718  2.2149  0.3292
  351DOPC  H17Y48434   3.193   5.305   3.869  0.0293  0.2288  1.3002
  351DOPC  C31848435   3.203   5.479   4.010 -0.1455 -0.6621  0.4184
  351DOPC  H18X48436   3.159   5.420   4.093 -1.9897 -1.3448 -0.9598
  351DOPC  H18Y48437   3.311   5.501   4.022 -0.2484  1.4032 -1.7383
  351DOPC  H18Z48438   3.157   5.580   4.010 -0.4794 -0.8051  1.3460
  352DOPC     N48439   1.068   2.950   1.716 -0.8167  0.2240  0.6864
  352DOPC   C1248440   1.092   2.813   1.746 -0.3008  0.4791 -0.3573
  352DOPC  H12A48441   1.174   2.802   1.815 -0.9419  0.0669  0.3652
  352DOPC  H12B48442   1.132   2.768   1.657  1.8808 -0.0588  0.8414
  352DOPC   C1348443   0.980   3.021   1.816 -0.4001 -1.0738  0.6016
  352DOPC  H13A48444   0.881   2.979   1.826 -0.6492 -0.2725  1.8133
  352DOPC  H13B48445   1.031   3.029   1.911  0.3326 -1.1239  0.2214
  352DOPC  H13C48446   0.961   3.123   1.786  1.7643 -0.7618  0.1212
  352DOPC   C1448447   1.005   2.978   1.586  0.0767  0.4207 -0.2142
  352DOPC  H14A48448   0.910   2.927   1.574  0.4591 -0.3316 -0.0565
  352DOPC  H14B48449   0.982   3.083   1.574 -0.3134  0.2999 -0.5521
  352DOPC  H14C48450   1.068   2.949   1.503 -0.7934 -2.0493 -0.0906
  352DOPC   C1548451   1.202   3.018   1.715  0.3969  0.2128  0.1173
  352DOPC  H15A48452   1.209   3.122   1.688 -0.4878  0.2259 -0.0722
  352DOPC  H15B48453   1.275   2.964   1.656  1.7846  1.8699  0.2316
  352DOPC  H15C48454   1.244   3.017   1.815 -0.9439  2.2801  0.7559
  352DOPC   C1148455   0.972   2.733   1.792  0.2174 -0.1766 -0.0433
  352DOPC  H11A48456   0.944   2.754   1.898  2.7816  0.0634  0.6415
  352DOPC  H11B48457   0.883   2.760   1.732  1.5295  2.6010 -0.9094
  352DOPC     P48458   1.108   2.522   1.879  0.0275 -0.1904  0.1128
  352DOPC   O1348459   1.238   2.590   1.865  0.6756  0.5830 -0.2327
  352DOPC   O1448460   1.112   2.378   1.850  0.9972 -0.1194 -0.3000
  352DOPC   O1248461   1.009   2.595   1.777  0.3406 -0.1532 -0.0389
  352DOPC   O1148462   1.050   2.552   2.025  0.4456 -0.1171 -0.1256
  352DOPC    C148463   0.927   2.485   2.058  0.0067  0.3424  0.1463
  352DOPC    HA48464   0.946   2.376   2.049 -0.7691  0.3813 -3.0221
  352DOPC    HB48465   0.852   2.512   1.981  0.0203  0.8386  0.3036
  352DOPC    C248466   0.866   2.531   2.196  0.6942 -0.2186 -0.1506
  352DOPC    HS48467   0.781   2.461   2.210  1.0572 -0.6560 -0.0751
  352DOPC   O2148468   0.825   2.667   2.195 -0.0928  0.0049  0.3352
  352DOPC   C2148469   0.717   2.700   2.127 -0.6921 -0.5349 -0.1659
  352DOPC   O2248470   0.660   2.633   2.044  0.4192  0.1490 -0.5393
  352DOPC   C2248471   0.692   2.849   2.151  0.9572 -0.6123  0.1905
  352DOPC   H2R48472   0.589   2.866   2.114 -0.2945 -0.0936  3.5837
  352DOPC   H2S48473   0.767   2.894   2.082 -1.4154 -0.1787 -2.2910
  352DOPC    C348474   0.973   2.511   2.306 -0.7523  0.5637 -0.0104
  352DOPC    HX48475   1.065   2.571   2.286 -0.9563  0.5259 -1.1461
  352DOPC    HY48476   1.002   2.404   2.310 -0.5844  0.6394  1.2079
  352DOPC   O3148477   0.931   2.544   2.437  0.8731  0.2030 -0.3481
  352DOPC   C3148478   0.959   2.665   2.481 -0.4407  0.7859 -0.9822
  352DOPC   O3248479   1.018   2.751   2.421 -0.3202  0.8207  0.1415
  352DOPC   C3248480   0.910   2.671   2.635  0.0894  0.3423 -0.2986
  352DOPC   H2X48481   0.800   2.664   2.629  0.2424 -1.5221 -2.0619
  352DOPC   H2Y48482   0.940   2.572   2.678 -3.1353 -0.8291 -0.4832
  352DOPC   C2348483   0.703   2.896   2.297 -0.2509 -0.0890  0.2853
  352DOPC   H3R48484   0.680   3.005   2.293 -1.7419 -0.4079 -0.9890
  352DOPC   H3S48485   0.808   2.893   2.333 -0.0588  0.3413 -0.2137
  352DOPC   C2448486   0.611   2.825   2.399  0.5709 -0.3135  0.3619
  352DOPC   H4R48487   0.631   2.716   2.404  1.7931 -0.1678 -0.7749
  352DOPC   H4S48488   0.507   2.836   2.361  1.0898  0.2982 -0.9524
  352DOPC   C2548489   0.617   2.867   2.549  0.5522  0.3400 -0.0378
  352DOPC   H5R48490   0.722   2.852   2.583 -0.1218 -1.6252  1.3209
  352DOPC   H5S48491   0.551   2.801   2.607 -0.6134 -0.9163 -2.6160
  352DOPC   C2648492   0.567   3.012   2.583 -0.4430  0.2180  0.0530
  352DOPC   H6R48493   0.457   3.008   2.570 -0.7307  0.1526  2.1046
  352DOPC   H6S48494   0.628   3.063   2.505  0.7961 -2.4907 -0.8968
  352DOPC   C2748495   0.588   3.052   2.725 -0.0173  0.1230 -0.5288
  352DOPC   H7R48496   0.693   3.037   2.758 -0.4278 -0.0668  0.7312
  352DOPC   H7S48497   0.537   2.981   2.795  0.7719 -0.4529 -0.5272
  352DOPC   C2848498   0.545   3.199   2.752 -0.7207  0.2333  0.6341
  352DOPC   H8R48499   0.605   3.269   2.691 -2.3913  3.0852  2.0271
  352DOPC   H8S48500   0.568   3.235   2.855  0.5461  1.8160 -0.1636
  352DOPC   C2948501   0.402   3.224   2.706  0.0745  0.1733  0.4546
  352DOPC   H9R48502   0.398   3.262   2.603 -0.7707  1.5561  0.9596
  352DOPC  C21048503   0.291   3.210   2.780  0.1790  0.4287 -0.4731
  352DOPC  H10R48504   0.192   3.222   2.732 -0.1416 -1.8696 -0.5046
  352DOPC  C21148505   0.280   3.152   2.916  0.1863 -0.5619 -0.2077
  352DOPC  H11R48506   0.240   3.238   2.974  1.2305 -0.3183  0.1663
  352DOPC  H11S48507   0.378   3.123   2.960  0.5651  0.9547  0.0004
  352DOPC  C21248508   0.172   3.045   2.933  0.2796 -0.5422 -1.0182
  352DOPC  H12R48509   0.206   2.953   2.879  0.8929 -1.1096  0.2918
  352DOPC  H12S48510   0.072   3.073   2.894  0.1709  2.4443  1.1057
  352DOPC  C21348511   0.153   3.005   3.079 -0.2314  1.0074 -0.0921
  352DOPC  H13R48512   0.244   2.959   3.124 -0.3149  0.4321 -0.5052
  352DOPC  H13S48513   0.081   2.921   3.076 -0.6805  1.2823  1.7570
  352DOPC  C21448514   0.086   3.108   3.174  0.1646  0.7309  0.4983
  352DOPC  H14R48515  -0.009   3.135   3.123 -0.1261 -2.6509 -0.9613
  352DOPC  H14S48516   0.150   3.198   3.188  0.4914  0.5239  0.3429
  352DOPC  C21548517   0.057   3.051   3.312 -0.4135  0.1341 -0.6076
  352DOPC  H15R48518   0.150   3.043   3.372 -0.4579 -1.9453 -0.7419
  352DOPC  H15S48519   0.006   2.952   3.309  1.9438 -1.3504  2.5268
  352DOPC  C21648520  -0.015   3.154   3.395 -0.2385  0.2573 -0.7772
  352DOPC  H16R48521  -0.114   3.176   3.350 -0.2081 -1.0496 -1.5176
  352DOPC  H16S48522   0.052   3.242   3.389 -0.2042  0.6239  2.6825
  352DOPC  C21748523  -0.031   3.106   3.542  0.0626 -0.4172  1.0398
  352DOPC  H17R48524  -0.110   3.027   3.541  0.1431 -0.5003 -0.3843
  352DOPC  H17S48525   0.064   3.060   3.579  0.1711 -1.2614 -0.2403
  352DOPC  C21848526  -0.082   3.227   3.623 -0.1652 -0.1734  0.0154
  352DOPC  H18R48527  -0.154   3.295   3.572  0.0225  0.8475  1.0648
  352DOPC  H18S48528   0.007   3.289   3.648 -0.5390  0.8382 -1.0498
  352DOPC  H18T48529  -0.124   3.193   3.720  1.4983  1.3245  1.3383
  352DOPC   C3348530   0.959   2.792   2.717 -0.5995 -0.0194  0.4970
  352DOPC   H3X48531   0.926   2.882   2.662 -0.2250 -0.2425 -0.1045
  352DOPC   H3Y48532   1.070   2.798   2.722 -0.5720 -0.2731  0.1853
  352DOPC   C3448533   0.897   2.792   2.857  0.4489 -0.3393  0.3484
  352DOPC   H4X48534   0.789   2.815   2.858 -0.0226 -2.0835 -1.9892
  352DOPC   H4Y48535   0.955   2.869   2.913  1.3462 -1.2043  0.6438
  352DOPC   C3548536   0.921   2.661   2.937  0.2703  0.3491  0.5735
  352DOPC   H5X48537   1.022   2.616   2.925 -0.8060 -2.6375  1.8512
  352DOPC   H5Y48538   0.850   2.582   2.907  1.2256  0.1108 -1.1601
  352DOPC   C3648539   0.893   2.673   3.089  0.0288 -0.0063  0.0416
  352DOPC   H6X48540   0.955   2.756   3.129  1.3022 -0.5057 -0.8622
  352DOPC   H6Y48541   0.787   2.707   3.089  0.3066  0.9279  1.0966
  352DOPC   C3748542   0.907   2.539   3.163 -0.7126 -0.6073 -0.5532
  352DOPC   H7X48543   0.818   2.510   3.222 -0.9749 -0.3916 -0.8403
  352DOPC   H7Y48544   0.911   2.451   3.095  0.4448 -1.3669  0.4612
  352DOPC   C3848545   1.036   2.543   3.245 -0.7796  0.2696 -0.2003
  352DOPC   H8X48546   1.127   2.589   3.201 -0.0622  0.3645  1.3259
  352DOPC   H8Y48547   1.063   2.436   3.259 -0.7327  0.1007 -1.4354
  352DOPC   C3948548   1.008   2.616   3.372 -0.1860  0.0803 -0.4611
  352DOPC   H9X48549   0.972   2.720   3.365  1.1618  0.6144  0.1571
  352DOPC  C31048550   1.030   2.566   3.495  0.2239 -0.0527 -0.4417
  352DOPC  H10X48551   0.999   2.624   3.584 -1.4309 -0.5160 -0.6830
  352DOPC  C31148552   1.083   2.428   3.532  0.0928 -0.4129  0.1809
  352DOPC  H11X48553   1.136   2.374   3.451  1.8934  0.5948  0.6455
  352DOPC  H11Y48554   0.999   2.371   3.576 -0.4356 -0.2822 -0.6321
  352DOPC  C31248555   1.199   2.438   3.639  0.5569  0.0009 -0.1686
  352DOPC  H12X48556   1.165   2.499   3.725 -3.1796 -2.5219  0.3387
  352DOPC  H12Y48557   1.286   2.487   3.590  2.3299 -0.5976  2.1933
  352DOPC  C31348558   1.236   2.302   3.698  0.3399  0.2550  1.2769
  352DOPC  H13X48559   1.151   2.231   3.705  1.3238 -1.2675 -0.9497
  352DOPC  H13Y48560   1.306   2.253   3.627 -0.6584  0.2232  0.2898
  352DOPC  C31448561   1.298   2.311   3.839 -0.0744 -0.1440 -0.0141
  352DOPC  H14X48562   1.379   2.386   3.846  1.6079 -1.9123  0.5966
  352DOPC  H14Y48563   1.220   2.342   3.912 -1.3088  0.3381 -1.4886
  352DOPC  C31548564   1.373   2.185   3.883 -0.6434  0.2863 -0.0546
  352DOPC  H15X48565   1.416   2.209   3.982  0.7411  0.7577 -0.7390
  352DOPC  H15Y48566   1.459   2.161   3.817  0.0831 -1.3151  1.4085
  352DOPC  C31648567   1.287   2.059   3.890 -0.3060  0.6226 -0.0804
  352DOPC  H16X48568   1.219   2.058   3.978 -1.5249  0.6308 -0.9978
  352DOPC  H16Y48569   1.230   2.047   3.796 -2.5243  2.0709  0.9880
  352DOPC  C31748570   1.374   1.933   3.904  0.3175 -0.3956  0.2946
  352DOPC  H17X48571   1.462   1.948   3.838  0.2624  1.6515  0.6137
  352DOPC  H17Y48572   1.424   1.934   4.003  0.9145  2.1931  0.0572
  352DOPC  C31848573   1.301   1.802   3.861  0.5882  0.3893 -0.1775
  352DOPC  H18X48574   1.285   1.791   3.752 -1.3932 -1.9406  0.2739
  352DOPC  H18Y48575   1.355   1.710   3.893 -2.0220 -0.9550  0.6453
  352DOPC  H18Z48576   1.208   1.800   3.922  0.2302  3.3001 -0.4709
  353DOPC     N48577   2.853   1.945   2.600  0.0824 -0.0801 -0.8201
  353DOPC   C1248578   2.860   1.869   2.467 -0.2732  0.0496 -0.6001
  353DOPC  H12A48579   2.923   1.932   2.406 -0.2380 -0.1907 -0.8131
  353DOPC  H12B48580   2.763   1.873   2.419 -1.1556 -0.6498  1.0279
  353DOPC   C1348581   2.986   1.996   2.647  0.3517  0.5520 -0.1326
  353DOPC  H13A48582   3.046   1.912   2.678  0.4858  0.4378 -0.6934
  353DOPC  H13B48583   3.026   2.060   2.570 -0.9520 -0.2554 -1.5142
  353DOPC  H13C48584   2.976   2.054   2.738  2.1971  1.6044 -0.5452
  353DOPC   C1448585   2.791   1.864   2.712 -0.1014 -0.2485  0.0120
  353DOPC  H14A48586   2.855   1.777   2.716  1.3389  0.7932  0.7351
  353DOPC  H14B48587   2.798   1.925   2.801  3.0534  1.1698 -1.0581
  353DOPC  H14C48588   2.688   1.837   2.696 -0.1616  0.3883 -0.7249
  353DOPC   C1548589   2.764   2.069   2.583 -0.9619  0.2146  0.1607
  353DOPC  H15A48590   2.788   2.140   2.661  1.0818 -0.8573  0.5721
  353DOPC  H15B48591   2.661   2.046   2.607 -0.5608 -1.0115  0.8015
  353DOPC  H15C48592   2.767   2.118   2.487  1.3322  0.0395  0.0873
  353DOPC   C1148593   2.917   1.718   2.461 -0.0988  0.2608 -0.7863
  353DOPC  H11A48594   2.858   1.661   2.537  1.2697  1.1067  0.9664
  353DOPC  H11B48595   2.889   1.699   2.355  0.2335  0.4817 -0.9126
  353DOPC     P48596   3.153   1.779   2.384 -0.0942 -0.1965 -0.2081
  353DOPC   O1348597   3.098   1.903   2.332  0.0314  0.1087  0.1786
  353DOPC   O1448598   3.218   1.683   2.295 -0.1959  0.5159 -0.2068
  353DOPC   O1248599   3.055   1.701   2.487  0.0755  0.5300  0.0272
  353DOPC   O1148600   3.270   1.819   2.485 -0.2355 -0.1061  0.1820
  353DOPC    C148601   3.317   1.717   2.574 -0.4825  0.4380 -0.0749
  353DOPC    HA48602   3.392   1.650   2.526 -0.3875 -0.0792  0.7698
  353DOPC    HB48603   3.244   1.639   2.606  0.9391 -0.8339  0.1963
  353DOPC    C248604   3.383   1.764   2.699  0.2714  0.2992  0.1589
  353DOPC    HS48605   3.315   1.849   2.722  0.8337  0.8990 -0.3340
  353DOPC   O2148606   3.513   1.807   2.663 -0.0949 -0.0039 -0.3740
  353DOPC   C2148607   3.552   1.920   2.719 -0.2943 -0.2346 -0.0705
  353DOPC   O2248608   3.482   1.991   2.788 -0.1590 -0.5874  0.4222
  353DOPC   C2248609   3.697   1.948   2.702 -0.2802  0.5582 -0.2833
  353DOPC   H2R48610   3.692   2.052   2.662 -0.1830  0.6629 -0.0218
  353DOPC   H2S48611   3.736   1.873   2.630 -3.0994 -1.7094  0.3703
  353DOPC    C348612   3.383   1.659   2.813  0.1995  0.2078 -0.3644
  353DOPC    HX48613   3.435   1.570   2.771 -0.2360  0.3259 -1.1543
  353DOPC    HY48614   3.281   1.620   2.834 -0.0370 -0.1963 -2.1097
  353DOPC   O3148615   3.450   1.692   2.936  0.7504  0.1133  0.5975
  353DOPC   C3148616   3.383   1.788   3.006 -0.3152  0.4904 -0.8556
  353DOPC   O3248617   3.276   1.834   2.980  0.3285  0.3147  0.6225
  353DOPC   C3248618   3.481   1.846   3.119 -0.3723  0.3222  0.5341
  353DOPC   H2X48619   3.528   1.763   3.176  0.0486  0.7310  0.7844
  353DOPC   H2Y48620   3.557   1.899   3.059  0.6530 -1.9900 -0.3319
  353DOPC   C2348621   3.774   1.954   2.833 -0.3037  0.5042 -0.4337
  353DOPC   H3R48622   3.715   2.005   2.911  1.4505 -0.4716  1.6356
  353DOPC   H3S48623   3.875   2.001   2.831  0.2597 -0.6130  0.5400
  353DOPC   C2448624   3.804   1.815   2.895 -0.2900 -0.3176  0.3525
  353DOPC   H4R48625   3.846   1.742   2.821  0.3500  0.3864  0.0138
  353DOPC   H4S48626   3.710   1.765   2.927 -0.4351 -0.1661  0.1644
  353DOPC   C2548627   3.899   1.833   3.019 -0.4606  0.1379 -0.2946
  353DOPC   H5R48628   3.845   1.893   3.095 -2.0898 -2.1638  0.4825
  353DOPC   H5S48629   3.988   1.889   2.983  0.0950  0.5279  1.5827
  353DOPC   C2648630   3.940   1.701   3.085  0.5124  0.7066 -0.0044
  353DOPC   H6R48631   3.983   1.628   3.013 -0.3398 -0.9019  1.0554
  353DOPC   H6S48632   3.847   1.653   3.124  0.4560  0.8920  0.0876
  353DOPC   C2748633   4.050   1.711   3.195  0.2336 -0.5127  0.2493
  353DOPC   H7R48634   4.118   1.795   3.170 -0.9776 -0.3356 -2.9927
  353DOPC   H7S48635   4.119   1.624   3.195  0.3528 -0.4311  1.5726
  353DOPC   C2848636   3.999   1.739   3.339 -0.8018  0.7416  0.2137
  353DOPC   H8R48637   3.947   1.646   3.372  1.4756 -0.2836  1.0806
  353DOPC   H8S48638   3.928   1.824   3.328 -1.4220  0.2618  0.4270
  353DOPC   C2948639   4.118   1.770   3.438 -0.0223  0.3489  0.5193
  353DOPC   H9R48640   4.180   1.859   3.417 -0.4312  0.3804 -0.6479
  353DOPC  C21048641   4.148   1.697   3.544 -0.2370 -0.3392  0.7353
  353DOPC  H10R48642   4.245   1.721   3.590 -0.3817  2.6964 -0.3170
  353DOPC  C21148643   4.094   1.558   3.564  0.0449  0.7283 -0.2438
  353DOPC  H11R48644   4.105   1.495   3.474 -0.2254 -0.0552  0.2666
  353DOPC  H11S48645   3.987   1.555   3.593 -0.5090  0.0875 -2.1780
  353DOPC  C21248646   4.170   1.484   3.682  0.9868  0.2015 -0.5871
  353DOPC  H12R48647   4.279   1.479   3.661  0.7923  0.1807 -1.6386
  353DOPC  H12S48648   4.129   1.381   3.683  0.3942  0.4347 -0.0825
  353DOPC  C21348649   4.145   1.554   3.818 -0.1761  0.2449  0.9763
  353DOPC  H13R48650   4.041   1.591   3.829 -0.6149 -0.5137 -0.4004
  353DOPC  H13S48651   4.218   1.638   3.819 -0.3270  0.3775  0.8454
  353DOPC  C21448652   4.165   1.466   3.937 -0.0752 -0.0060 -0.6013
  353DOPC  H14R48653   4.269   1.427   3.938  0.3399  1.0458  1.4924
  353DOPC  H14S48654   4.097   1.378   3.947  0.9934 -0.7680  0.1614
  353DOPC  C21548655   4.160   1.550   4.065 -0.0278  0.6231  0.3436
  353DOPC  H15R48656   4.053   1.577   4.078  0.4737  1.8200  2.5405
  353DOPC  H15S48657   4.217   1.644   4.054  0.0565  0.9023  2.6229
  353DOPC  C21648658   4.194   1.479   4.197  0.6767  0.0956 -0.6370
  353DOPC  H16R48659   4.305   1.467   4.204  0.8732  0.9176 -1.9665
  353DOPC  H16S48660   4.165   1.373   4.185 -0.3137  0.2702  0.0547
  353DOPC  C21748661   4.148   1.547   4.330 -0.1029 -1.0273  0.2517
  353DOPC  H17R48662   4.088   1.634   4.297  0.6437 -0.3700  0.5984
  353DOPC  H17S48663   4.236   1.596   4.378 -1.5603  0.5197  1.4456
  353DOPC  C21848664   4.054   1.471   4.428 -0.0837 -0.1268  0.6671
  353DOPC  H18R48665   4.015   1.523   4.518  0.0674  1.3305 -0.0771
  353DOPC  H18S48666   4.104   1.377   4.461 -0.7934 -0.4973  0.6936
  353DOPC  H18T48667   3.962   1.440   4.374 -0.5931  2.5609 -0.1837
  353DOPC   C3348668   3.422   1.956   3.206  0.3509  0.5687  0.1253
  353DOPC   H3X48669   3.344   1.914   3.273 -0.2402  1.2742 -0.1120
  353DOPC   H3Y48670   3.370   2.035   3.147 -0.7849  0.3978  0.8912
  353DOPC   C3448671   3.530   2.020   3.295  0.3390 -0.3324  0.0942
  353DOPC   H4X48672   3.491   2.103   3.359  2.5098  0.0922  0.9541
  353DOPC   H4Y48673   3.598   2.072   3.224 -2.1046  0.3423 -1.9041
  353DOPC   C3548674   3.609   1.923   3.387  0.5394 -0.5711 -0.0026
  353DOPC   H5X48675   3.677   1.857   3.329 -0.4561 -2.3511  0.7935
  353DOPC   H5Y48676   3.551   1.855   3.452  0.7562 -1.4151 -0.6782
  353DOPC   C3648677   3.687   2.009   3.493  0.0598  1.0866 -0.0046
  353DOPC   H6X48678   3.754   2.079   3.438  3.1247 -2.1083 -0.7189
  353DOPC   H6Y48679   3.614   2.059   3.560  0.6947  0.7516  0.9526
  353DOPC   C3748680   3.765   1.915   3.582 -1.0240 -0.1258  0.1431
  353DOPC   H7X48681   3.692   1.835   3.604 -1.3957  0.1500 -0.0654
  353DOPC   H7Y48682   3.850   1.875   3.523 -0.7285  1.1739 -0.3485
  353DOPC   C3848683   3.828   1.988   3.701 -0.1318 -0.8041  0.8218
  353DOPC   H8X48684   3.748   2.020   3.772 -1.6109  0.0395 -1.1073
  353DOPC   H8Y48685   3.882   2.077   3.660  2.9672 -2.2192  1.5627
  353DOPC   C3948686   3.922   1.889   3.770  0.2337  0.0597 -0.0943
  353DOPC   H9X48687   3.986   1.828   3.705  0.1515 -1.0834  0.8696
  353DOPC  C31048688   3.960   1.894   3.904 -0.0999  0.3299 -0.5688
  353DOPC  H10X48689   4.036   1.823   3.939 -0.6818 -0.1395 -0.2426
  353DOPC  C31148690   3.892   1.988   4.000  0.3401  0.0523 -0.6778
  353DOPC  H11X48691   3.781   1.977   4.003  0.4458 -0.8227  0.7000
  353DOPC  H11Y48692   3.911   2.095   3.973 -0.5045  0.9037  1.7889
  353DOPC  C31248693   3.941   1.972   4.141 -0.2092 -0.1545 -1.1768
  353DOPC  H12X48694   3.904   2.060   4.197 -2.1843 -0.6928 -1.5597
  353DOPC  H12Y48695   4.052   1.965   4.150 -0.2263  1.6158  1.2175
  353DOPC  C31348696   3.892   1.847   4.216 -0.5624 -0.5327  1.2114
  353DOPC  H13X48697   3.781   1.846   4.213 -0.5524 -0.0970 -0.2444
  353DOPC  H13Y48698   3.921   1.755   4.162 -1.1813  0.1853 -0.4242
  353DOPC  C31448699   3.928   1.848   4.361  0.1901  0.7477 -0.5451
  353DOPC  H14X48700   3.872   1.759   4.397  1.4815 -0.2022 -0.8225
  353DOPC  H14Y48701   4.037   1.832   4.371  0.5171  1.7935 -2.1839
  353DOPC  C31548702   3.879   1.970   4.439  0.1329 -1.0171 -0.0132
  353DOPC  H15X48703   3.772   1.993   4.418  0.3617  0.0534 -0.0104
  353DOPC  H15Y48704   3.944   2.051   4.402 -2.2051  1.1748  0.3929
  353DOPC  C31648705   3.920   1.964   4.590  1.0005 -0.6328 -0.9296
  353DOPC  H16X48706   4.022   1.925   4.610  1.0113 -0.8155 -1.3185
  353DOPC  H16Y48707   3.940   2.069   4.620  1.8690 -0.5973 -1.5927
  353DOPC  C31748708   3.819   1.897   4.682 -0.0059  0.0053 -0.5198
  353DOPC  H17X48709   3.733   1.964   4.700  0.0727 -0.1030  0.2888
  353DOPC  H17Y48710   3.772   1.811   4.630 -0.8352  0.5216 -0.6329
  353DOPC  C31848711   3.878   1.836   4.813  0.5472 -0.3117 -0.1455
  353DOPC  H18X48712   3.931   1.740   4.792  2.3443  1.0124 -1.9678
  353DOPC  H18Y48713   3.954   1.905   4.856  0.5676 -1.1431  1.2322
  353DOPC  H18Z48714   3.796   1.826   4.887  0.7447  2.1458  0.4862
  354DOPC     N48715   0.518   3.335   1.681  0.8267  0.3080  0.5484
  354DOPC   C1248716   0.485   3.465   1.749  0.8396  0.4327 -0.5448
  354DOPC  H12A48717   0.378   3.471   1.758  0.8836  0.3056  0.1339
  354DOPC  H12B48718   0.516   3.549   1.688  0.4043 -0.6087 -2.2589
  354DOPC   C1348719   0.475   3.332   1.536 -0.2842 -0.5873  1.0765
  354DOPC  H13A48720   0.510   3.420   1.484 -2.3762  0.4220  1.2519
  354DOPC  H13B48721   0.505   3.240   1.487 -0.9766 -0.3142  0.0959
  354DOPC  H13C48722   0.367   3.339   1.533 -0.1580  3.0308  0.0701
  354DOPC   C1448723   0.433   3.226   1.737  0.1664  0.4265  0.0177
  354DOPC  H14A48724   0.328   3.236   1.713 -0.3785 -0.8309  1.7307
  354DOPC  H14B48725   0.465   3.129   1.702 -1.4451  0.1125 -0.6425
  354DOPC  H14C48726   0.431   3.226   1.845 -1.1604  0.1284  0.0065
  354DOPC   C1548727   0.662   3.307   1.684 -0.7920  0.4531 -0.2644
  354DOPC  H15A48728   0.691   3.329   1.785 -1.3836 -2.4767  0.6323
  354DOPC  H15B48729   0.716   3.369   1.614  0.6715 -1.3573 -0.8410
  354DOPC  H15C48730   0.670   3.201   1.666 -2.4345  0.4077 -0.9068
  354DOPC   C1148731   0.533   3.489   1.900  0.0841 -0.5608  0.1689
  354DOPC  H11A48732   0.644   3.490   1.899  0.1248  1.9104  0.1127
  354DOPC  H11B48733   0.501   3.592   1.926  0.4289 -0.1239 -1.0897
  354DOPC     P48734   0.340   3.387   2.042 -0.2429 -0.2864 -0.2254
  354DOPC   O1348735   0.296   3.258   2.090 -0.2778  0.5467  0.1111
  354DOPC   O1448736   0.256   3.447   1.937  0.6024 -0.2350 -0.6288
  354DOPC   O1248737   0.493   3.385   1.992  0.1929 -0.3038  0.3271
  354DOPC   O1148738   0.353   3.487   2.159 -0.2839  0.3250  0.5100
  354DOPC    C148739   0.433   3.472   2.274 -0.0294 -0.2375 -0.3019
  354DOPC    HA48740   0.462   3.366   2.291 -0.2589 -0.2827 -0.1924
  354DOPC    HB48741   0.371   3.493   2.364 -0.4335  0.4446 -0.7322
  354DOPC    C248742   0.553   3.568   2.280 -0.1887 -0.8384  0.0496
  354DOPC    HS48743   0.630   3.514   2.222  0.3666  0.0052 -0.0079
  354DOPC   O2148744   0.590   3.598   2.418 -0.4766  0.2036  0.2374
  354DOPC   C2148745   0.664   3.504   2.468  0.7367  0.1668  0.3844
  354DOPC   O2248746   0.713   3.406   2.414  0.3129 -0.6135  0.1373
  354DOPC   C2248747   0.701   3.547   2.606 -0.0626  0.2038 -0.2499
  354DOPC   H2R48748   0.767   3.636   2.618  0.6000 -0.6275  3.2104
  354DOPC   H2S48749   0.760   3.460   2.642 -1.4778  0.0664  1.8661
  354DOPC    C348750   0.497   3.701   2.211  0.0439  0.4550  0.1405
  354DOPC    HX48751   0.395   3.719   2.250 -0.2232 -1.7897  0.6551
  354DOPC    HY48752   0.482   3.672   2.105  0.4541  1.0460 -0.0840
  354DOPC   O3148753   0.589   3.818   2.228  0.4492 -0.2277  0.5448
  354DOPC   C3148754   0.700   3.809   2.155 -0.8591 -0.1535  0.2180
  354DOPC   O3248755   0.742   3.704   2.102 -0.1629  0.2403 -0.3649
  354DOPC   C3248756   0.759   3.948   2.144  0.3357  0.1461  0.4270
  354DOPC   H2X48757   0.783   3.960   2.036 -1.6684 -0.8798 -0.1814
  354DOPC   H2Y48758   0.682   4.015   2.187 -0.2350 -0.0998 -0.2007
  354DOPC   C2348759   0.571   3.576   2.688 -0.2655 -0.1342  0.3926
  354DOPC   H3R48760   0.503   3.490   2.674  1.5356 -1.2702 -2.0144
  354DOPC   H3S48761   0.522   3.667   2.647 -1.0195 -0.5087  0.4596
  354DOPC   C2448762   0.603   3.593   2.834 -0.4885 -0.2698 -0.1716
  354DOPC   H4R48763   0.668   3.683   2.844  0.6806 -0.6916 -3.0234
  354DOPC   H4S48764   0.655   3.509   2.884 -0.7893 -1.0977 -1.2237
  354DOPC   C2548765   0.480   3.629   2.915 -0.1467  0.1347  0.1920
  354DOPC   H5R48766   0.422   3.534   2.923 -1.7036  1.1095  0.9690
  354DOPC   H5S48767   0.422   3.709   2.865  1.3841  0.8068 -0.5421
  354DOPC   C2648768   0.528   3.675   3.053  0.4602 -0.8062  0.7183
  354DOPC   H6R48769   0.442   3.682   3.123 -0.1992  0.3821 -0.1763
  354DOPC   H6S48770   0.565   3.780   3.047 -0.7055 -0.4592 -1.1111
  354DOPC   C2748771   0.629   3.587   3.126 -0.2893  0.8204  0.0843
  354DOPC   H7R48772   0.666   3.636   3.219  1.7247 -0.1710 -0.1246
  354DOPC   H7S48773   0.716   3.562   3.060 -0.8642  0.4534 -0.5491
  354DOPC   C2848774   0.565   3.450   3.152  0.1654 -0.3602  0.4686
  354DOPC   H8R48775   0.526   3.399   3.062  0.7173 -0.8430  0.5006
  354DOPC   H8S48776   0.478   3.473   3.217 -0.1690  0.6157 -0.2998
  354DOPC   C2948777   0.670   3.372   3.222 -0.2670  0.4972 -0.0199
  354DOPC   H9R48778   0.748   3.327   3.159  0.0995 -0.2335  0.9317
  354DOPC  C21048779   0.677   3.344   3.360  0.2146 -0.6430 -0.0098
  354DOPC  H10R48780   0.756   3.284   3.407 -0.0785  1.5568  3.6311
  354DOPC  C21148781   0.577   3.397   3.456 -0.7747 -0.5080 -0.2119
  354DOPC  H11R48782   0.567   3.508   3.458  1.2140 -0.3114  1.5276
  354DOPC  H11S48783   0.618   3.383   3.558  1.1897 -0.0863 -0.9138
  354DOPC  C21248784   0.434   3.339   3.463 -0.2517  0.1816 -0.0863
  354DOPC  H12R48785   0.381   3.370   3.370  0.5775  1.7684 -0.0731
  354DOPC  H12S48786   0.381   3.395   3.543  1.3709  4.0214 -1.4521
  354DOPC  C21348787   0.433   3.184   3.493  0.5820 -0.0877  0.1335
  354DOPC  H13R48788   0.537   3.145   3.482  2.0447  3.8484 -1.6306
  354DOPC  H13S48789   0.365   3.141   3.416 -0.1031  0.1626  0.5912
  354DOPC  C21448790   0.375   3.147   3.634 -0.6175 -0.0618  0.2724
  354DOPC  H14R48791   0.380   3.036   3.647  1.3552 -0.4638 -2.7593
  354DOPC  H14S48792   0.268   3.175   3.625 -1.3908 -2.6392  0.5877
  354DOPC  C21548793   0.448   3.222   3.753  0.0016 -0.7244  0.5673
  354DOPC  H15R48794   0.465   3.329   3.729 -1.8629 -0.4200  0.4368
  354DOPC  H15S48795   0.541   3.163   3.767  0.3120 -0.3013  0.3062
  354DOPC  C21648796   0.366   3.208   3.882 -0.0767 -0.5404 -0.4552
  354DOPC  H16R48797   0.270   3.264   3.880 -0.6567 -1.5133 -0.7810
  354DOPC  H16S48798   0.421   3.253   3.968 -3.4435  0.2880  1.4525
  354DOPC  C21748799   0.305   3.066   3.917  0.3209 -0.5491  0.1819
  354DOPC  H17R48800   0.378   2.983   3.915  0.2403 -0.6267 -1.5549
  354DOPC  H17S48801   0.242   3.041   3.828  0.5678  2.0684 -0.8194
  354DOPC  C21848802   0.213   3.053   4.041 -0.4278 -0.1907  0.2760
  354DOPC  H18R48803   0.177   2.948   4.042  1.2073 -0.8251 -1.8606
  354DOPC  H18S48804   0.132   3.129   4.032  1.0890  1.6534  1.4019
  354DOPC  H18T48805   0.268   3.066   4.136  1.1108 -0.6636 -0.5261
  354DOPC   C3348806   0.891   3.965   2.213 -0.3982 -0.6647 -0.1957
  354DOPC   H3X48807   0.921   4.072   2.206 -1.5358 -0.0332  3.0138
  354DOPC   H3Y48808   0.968   3.903   2.164 -1.1459 -2.9483  1.3521
  354DOPC   C3448809   0.898   3.938   2.363  0.5467  0.6277  0.1080
  354DOPC   H4X48810   1.001   3.937   2.402  0.3715  1.0167  0.5854
  354DOPC   H4Y48811   0.860   3.834   2.380 -0.6054 -0.1234 -5.2100
  354DOPC   C3548812   0.807   4.024   2.445 -0.5698 -0.4314  0.4011
  354DOPC   H5X48813   0.699   4.003   2.434 -0.6605  0.7480 -1.3145
  354DOPC   H5Y48814   0.821   4.130   2.415 -1.9074 -0.2963  0.1922
  354DOPC   C3648815   0.840   4.012   2.591 -0.0575  0.2513  0.1026
  354DOPC   H6X48816   0.846   3.902   2.609  2.2642  0.6596  2.5339
  354DOPC   H6Y48817   0.943   4.048   2.613  1.4168 -3.5580  0.3416
  354DOPC   C3748818   0.737   4.072   2.685  0.4578  0.4523  0.0112
  354DOPC   H7X48819   0.718   4.177   2.652 -0.4317  0.3381  0.1408
  354DOPC   H7Y48820   0.641   4.021   2.662  0.1476  1.4698 -1.0893
  354DOPC   C3848821   0.771   4.071   2.838 -0.1937 -0.1866  0.1585
  354DOPC   H8X48822   0.863   4.133   2.842 -1.3286  1.5770 -0.0621
  354DOPC   H8Y48823   0.808   3.973   2.875  0.2596  0.3645  1.2083
  354DOPC   C3948824   0.662   4.131   2.926 -0.5604  0.2288  0.5920
  354DOPC   H9X48825   0.589   4.189   2.870  1.8640  1.1388 -1.8475
  354DOPC  C31048826   0.651   4.106   3.057  0.5439 -0.0921  0.5314
  354DOPC  H10X48827   0.559   4.139   3.107 -0.2814 -1.1019 -0.2524
  354DOPC  C31148828   0.745   4.026   3.143  0.8601 -0.0661 -0.2010
  354DOPC  H11X48829   0.851   4.035   3.113  2.2184 -1.0012  3.7313
  354DOPC  H11Y48830   0.727   3.917   3.143 -1.0584  0.1114  2.8578
  354DOPC  C31248831   0.736   4.092   3.292 -0.1115  0.2906  0.5180
  354DOPC  H12X48832   0.634   4.081   3.334  0.4161  0.3623  1.8776
  354DOPC  H12Y48833   0.749   4.201   3.274  0.8753 -0.0451 -1.0458
  354DOPC  C31348834   0.827   4.040   3.399  0.0036 -0.7278 -0.2593
  354DOPC  H13X48835   0.916   4.028   3.334  1.0773  2.3448  0.5093
  354DOPC  H13Y48836   0.844   4.124   3.469 -2.3795  0.2594 -0.7664
  354DOPC  C31448837   0.798   3.908   3.463  0.0363  0.6009  0.1370
  354DOPC  H14X48838   0.696   3.913   3.508  0.1322 -5.0053  1.7754
  354DOPC  H14Y48839   0.798   3.825   3.389 -1.6021  0.3031  0.4284
  354DOPC  C31548840   0.899   3.884   3.575 -0.3755 -0.2463 -0.6741
  354DOPC  H15X48841   0.874   3.949   3.662  0.8652  0.9745 -1.1811
  354DOPC  H15Y48842   1.003   3.909   3.547  0.3657 -1.4596  0.9081
  354DOPC  C31648843   0.900   3.739   3.630 -0.1279 -0.7252  0.0964
  354DOPC  H16X48844   0.970   3.747   3.716 -1.6692  1.5981  1.2533
  354DOPC  H16Y48845   0.798   3.725   3.673 -0.2146  0.9703  0.5162
  354DOPC  C31748846   0.934   3.623   3.533 -0.5323 -0.4172  0.3432
  354DOPC  H17X48847   0.878   3.625   3.437  0.2696  0.8335 -0.1213
  354DOPC  H17Y48848   1.042   3.642   3.511 -1.1543  1.0292 -1.7403
  354DOPC  C31848849   0.911   3.489   3.603 -0.1253 -0.2264 -0.5905
  354DOPC  H18X48850   0.885   3.410   3.530 -0.3541 -1.2284  0.5494
  354DOPC  H18Y48851   1.001   3.445   3.651  0.0667  0.6268 -0.1548
  354DOPC  H18Z48852   0.828   3.489   3.676  1.0471 -4.0452  1.0027
  355DOPC     N48853   0.747  11.692   2.070  0.6234  0.7387 -0.0890
  355DOPC   C1248854   0.712  11.563   2.001  0.1774  0.0605  0.0218
  355DOPC  H12A48855   0.609  11.541   2.022  0.2969 -0.7331 -0.1649
  355DOPC  H12B48856   0.769  11.477   2.034 -2.2780 -1.4752  0.4649
  355DOPC   C1348857   0.727  11.665   2.216  0.1720 -0.8774  0.2103
  355DOPC  H13A48858   0.623  11.653   2.244 -0.3593  1.3339 -0.6124
  355DOPC  H13B48859   0.786  11.580   2.245  1.1233 -1.0758 -2.0613
  355DOPC  H13C48860   0.755  11.752   2.274 -0.3208  0.1196 -1.0043
  355DOPC   C1448861   0.652  11.798   2.028 -0.0826  0.6622  0.1639
  355DOPC  H14A48862   0.563  11.761   1.978  0.1888 -1.9117  1.4237
  355DOPC  H14B48863   0.618  11.854   2.114 -0.1503 -0.8670  1.1606
  355DOPC  H14C48864   0.712  11.860   1.963 -1.8271  0.0603 -2.1637
  355DOPC   C1548865   0.887  11.742   2.042 -0.0911  0.3932 -0.3526
  355DOPC  H15A48866   0.900  11.776   1.940  1.2639  1.0809  0.0312
  355DOPC  H15B48867   0.958  11.661   2.045  0.6605  0.9269 -2.2845
  355DOPC  H15C48868   0.916  11.817   2.114 -0.1836 -0.9950  1.2079
  355DOPC   C1148869   0.735  11.563   1.849 -0.0409 -0.8376  0.4951
  355DOPC  H11A48870   0.676  11.480   1.803  1.6413 -1.9058  0.1881
  355DOPC  H11B48871   0.696  11.653   1.798  0.6173  0.2774  1.8945
  355DOPC     P48872   0.952  11.427   1.827 -0.1909  0.1078  0.6093
  355DOPC   O1348873   1.096  11.458   1.814 -0.0225 -0.2252  0.4557
  355DOPC   O1448874   0.904  11.345   1.714  0.0026 -0.0272 -0.1005
  355DOPC   O1248875   0.877  11.556   1.834 -0.1977  0.0747 -0.1576
  355DOPC   O1148876   0.926  11.350   1.960  0.3801 -0.5070 -0.1611
  355DOPC    C148877   1.031  11.290   2.043 -0.5045  0.5343  0.8520
  355DOPC    HA48878   1.135  11.320   2.018 -0.8568  1.3884  0.3934
  355DOPC    HB48879   1.029  11.179   2.036  0.1522  0.5649  0.0953
  355DOPC    C248880   1.019  11.337   2.184 -0.8887 -0.0175 -0.3725
  355DOPC    HS48881   0.910  11.333   2.204 -0.8314 -2.8663 -0.1713
  355DOPC   O2148882   1.078  11.466   2.192  0.4562 -0.0295  0.0099
  355DOPC   C2148883   1.037  11.543   2.291 -0.1836 -1.0211  0.1208
  355DOPC   O2248884   0.940  11.528   2.367  0.2491 -0.7658 -0.2687
  355DOPC   C2248885   1.124  11.667   2.285  0.2605  0.4014 -0.0472
  355DOPC   H2R48886   1.055  11.754   2.287 -0.4730 -0.1417  2.5070
  355DOPC   H2S48887   1.175  11.686   2.188 -0.0657  2.0893  0.0919
  355DOPC    C348888   1.093  11.239   2.286  0.4378  0.2228 -0.2907
  355DOPC    HX48889   1.200  11.235   2.257  0.5107  0.3638 -0.0392
  355DOPC    HY48890   1.044  11.140   2.273 -1.1741  0.8861  0.4659
  355DOPC   O3148891   1.076  11.278   2.423 -0.2990 -0.1706  0.8380
  355DOPC   C3148892   1.154  11.203   2.499 -0.2437 -0.8510  0.4820
  355DOPC   O3248893   1.233  11.115   2.461 -0.1574  0.1501  0.2045
  355DOPC   C3248894   1.159  11.267   2.640  0.0717  0.3264 -0.1184
  355DOPC   H2X48895   1.264  11.253   2.672  0.1059 -0.9969 -0.7134
  355DOPC   H2Y48896   1.144  11.376   2.632  0.2555  0.3309 -0.4065
  355DOPC   C2348897   1.226  11.673   2.402  0.1982 -0.0588  0.5920
  355DOPC   H3R48898   1.173  11.670   2.499 -0.0625 -0.2669  0.4417
  355DOPC   H3S48899   1.280  11.770   2.412  0.8132 -0.3964  0.6347
  355DOPC   C2448900   1.334  11.561   2.386  0.7104  0.0102 -0.1130
  355DOPC   H4R48901   1.396  11.579   2.296 -1.7168  0.3273 -1.8056
  355DOPC   H4S48902   1.270  11.472   2.369  0.0360  0.3844  0.3914
  355DOPC   C2548903   1.414  11.512   2.506  0.2292 -0.3785 -0.3344
  355DOPC   H5R48904   1.481  11.429   2.477  1.4772  0.6127 -0.3795
  355DOPC   H5S48905   1.341  11.474   2.581  2.8570 -2.1455  1.5163
  355DOPC   C2648906   1.499  11.622   2.572  0.3896  0.0394  0.1791
  355DOPC   H6R48907   1.437  11.697   2.626 -1.5291 -0.9805 -0.5036
  355DOPC   H6S48908   1.559  11.683   2.501 -0.7736 -0.6713 -1.4775
  355DOPC   C2748909   1.604  11.563   2.678  0.6852  0.2758 -0.0859
  355DOPC   H7R48910   1.629  11.661   2.724 -1.5412  1.7651 -1.8169
  355DOPC   H7S48911   1.696  11.520   2.635 -0.9193  0.1515 -3.8081
  355DOPC   C2848912   1.550  11.456   2.780  0.2721 -0.7506  0.0748
  355DOPC   H8R48913   1.638  11.444   2.846  1.6910  1.7169 -1.2235
  355DOPC   H8S48914   1.532  11.357   2.733 -0.0811  0.1053 -1.6735
  355DOPC   C2948915   1.428  11.508   2.852  0.6472 -0.6426  0.1203
  355DOPC   H9R48916   1.361  11.570   2.790  0.3699 -1.8247 -0.7858
  355DOPC  C21048917   1.394  11.495   2.981  1.1806 -0.2623 -0.1973
  355DOPC  H10R48918   1.312  11.557   3.020  0.7606 -0.6140 -0.5056
  355DOPC  C21148919   1.470  11.423   3.088 -0.0590 -0.3287  0.0744
  355DOPC  H11R48920   1.562  11.379   3.045 -0.1052 -1.0551  0.6990
  355DOPC  H11S48921   1.414  11.330   3.116 -0.8674 -0.2431 -1.1705
  355DOPC  C21248922   1.512  11.502   3.213  0.3473 -0.2739  0.2592
  355DOPC  H12R48923   1.418  11.521   3.269 -0.3729  0.1494 -1.0757
  355DOPC  H12S48924   1.537  11.606   3.184 -0.7257  0.5165  2.0171
  355DOPC  C21348925   1.601  11.415   3.304 -0.5742  0.1958 -0.4817
  355DOPC  H13R48926   1.694  11.384   3.251  0.7561 -0.4356  2.0794
  355DOPC  H13S48927   1.547  11.323   3.335  0.6606 -0.7890 -1.1712
  355DOPC  C21448928   1.650  11.495   3.432  0.1446  0.2654  0.0902
  355DOPC  H14R48929   1.566  11.550   3.479  0.7516  0.8623  0.4898
  355DOPC  H14S48930   1.720  11.573   3.394  1.1863 -1.2257 -1.2153
  355DOPC  C21548931   1.731  11.401   3.531  0.3092  0.3410 -0.0580
  355DOPC  H15R48932   1.663  11.323   3.571 -1.5844  2.0458  0.2338
  355DOPC  H15S48933   1.763  11.468   3.614 -1.2291  1.6108 -0.4401
  355DOPC  C21648934   1.856  11.333   3.469  0.3424  0.8971  0.3238
  355DOPC  H16R48935   1.828  11.272   3.381 -0.5245  1.8317 -0.0653
  355DOPC  H16S48936   1.900  11.273   3.552 -0.2095 -0.4541 -0.3350
  355DOPC  C21748937   1.962  11.437   3.421 -0.3373 -0.1270  0.3175
  355DOPC  H17R48938   1.995  11.501   3.506  2.5426  0.2887 -0.9845
  355DOPC  H17S48939   1.909  11.505   3.352 -1.2090 -1.0161  0.0890
  355DOPC  C21848940   2.088  11.368   3.352  0.5745 -0.1939 -0.3619
  355DOPC  H18R48941   2.168  11.444   3.340 -1.0626  1.5046 -1.0366
  355DOPC  H18S48942   2.060  11.323   3.254 -1.2475 -0.2928  0.1527
  355DOPC  H18T48943   2.127  11.286   3.416 -0.5480 -1.5644 -1.3421
  355DOPC   C3348944   1.075  11.186   2.736 -0.4893  0.7153 -0.2066
  355DOPC   H3X48945   1.110  11.080   2.733  2.0767  1.5221 -1.2906
  355DOPC   H3Y48946   0.970  11.195   2.701 -0.1989  0.1124 -1.3013
  355DOPC   C3448947   1.091  11.238   2.885 -0.2801 -0.2156  0.2255
  355DOPC   H4X48948   1.058  11.344   2.888 -0.6801 -0.3488  0.7484
  355DOPC   H4Y48949   1.200  11.227   2.902 -0.4109  0.3413  1.5820
  355DOPC   C3548950   1.014  11.159   2.988  0.1486  0.3682 -0.3889
  355DOPC   H5X48951   0.907  11.172   2.965 -0.1690  0.8905  1.2267
  355DOPC   H5Y48952   1.023  11.207   3.088 -1.0607 -1.5025  0.6890
  355DOPC   C3648953   1.047  11.013   2.994 -0.0289 -0.0512 -0.3559
  355DOPC   H6X48954   1.046  10.974   2.890 -1.5237 -0.0048 -0.3846
  355DOPC   H6Y48955   1.152  11.005   3.029 -0.9656 -0.0955  2.7390
  355DOPC   C3748956   0.958  10.937   3.083  0.3590 -0.2831  0.4557
  355DOPC   H7X48957   0.853  10.959   3.054  0.8457 -0.7985 -1.9524
  355DOPC   H7Y48958   0.963  10.828   3.061  1.9473 -0.5557  1.9701
  355DOPC   C3848959   0.974  10.963   3.228  0.4934 -0.0217 -0.3390
  355DOPC   H8X48960   0.895  10.907   3.282  0.5930 -0.7740 -0.9555
  355DOPC   H8Y48961   0.955  11.068   3.258 -1.1704 -0.2200 -0.5976
  355DOPC   C3948962   1.103  10.909   3.276 -0.1532 -0.2310  0.3611
  355DOPC   H9X48963   1.144  10.825   3.218 -0.6981  0.1215 -0.5528
  355DOPC  C31048964   1.167  10.936   3.389 -0.1429  0.3831 -0.0209
  355DOPC  H10X48965   1.265  10.886   3.401 -0.7743 -0.7747  0.4651
  355DOPC  C31148966   1.138  11.046   3.488  0.0619 -0.2076  0.0971
  355DOPC  H11X48967   1.126  10.981   3.578 -2.6264  0.5825  0.4004
  355DOPC  H11Y48968   1.041  11.099   3.482 -0.1006 -0.1350  2.5099
  355DOPC  C31248969   1.254  11.151   3.507 -0.7636  0.3102 -0.1369
  355DOPC  H12X48970   1.259  11.220   3.420  0.4241  0.1107 -0.2386
  355DOPC  H12Y48971   1.349  11.095   3.509 -2.2238 -2.3002  0.4382
  355DOPC  C31348972   1.260  11.237   3.637  0.0929 -0.0796  1.1486
  355DOPC  H13X48973   1.192  11.323   3.618  1.0072  0.1414 -1.4946
  355DOPC  H13Y48974   1.210  11.178   3.717 -3.9016  1.1263 -0.2252
  355DOPC  C31448975   1.396  11.298   3.652  0.1382 -0.2126  0.2542
  355DOPC  H14X48976   1.471  11.223   3.621  1.5731  0.9250  0.8655
  355DOPC  H14Y48977   1.411  11.390   3.591  1.4910 -0.5264  0.0991
  355DOPC  C31548978   1.431  11.324   3.794 -0.2114 -1.0888 -0.4450
  355DOPC  H15X48979   1.525  11.384   3.801 -1.0068  0.2681 -0.9464
  355DOPC  H15Y48980   1.436  11.230   3.852 -0.8398 -0.8928 -0.0658
  355DOPC  C31648981   1.325  11.411   3.866 -0.3294 -0.0039 -0.1594
  355DOPC  H16X48982   1.284  11.498   3.812  0.7496  0.2595 -0.5844
  355DOPC  H16Y48983   1.247  11.337   3.894  0.8253 -1.8653 -1.6099
  355DOPC  C31748984   1.385  11.487   3.982  0.4607  0.2907 -0.1744
  355DOPC  H17X48985   1.421  11.415   4.059  0.4260  0.5416  0.0755
  355DOPC  H17Y48986   1.468  11.552   3.948  1.5045 -0.7255  0.3450
  355DOPC  C31848987   1.277  11.585   4.045 -0.2604  0.2908  0.8182
  355DOPC  H18X48988   1.328  11.652   4.118  0.0876  0.2227  0.6381
  355DOPC  H18Y48989   1.228  11.643   3.965 -0.0624  0.8951  1.1281
  355DOPC  H18Z48990   1.201  11.527   4.102  0.0120 -0.6367  0.2666
  356DOPC     N48991   2.722   3.895   1.676  0.1600  0.1662  0.2674
  356DOPC   C1248992   2.723   3.751   1.737 -0.6281  0.5641  0.4639
  356DOPC  H12A48993   2.717   3.763   1.844  0.9494 -0.2880  0.6717
  356DOPC  H12B48994   2.820   3.707   1.720  0.4872  1.7347  3.2470
  356DOPC   C1348995   2.840   3.962   1.735  0.2135  0.3742 -1.3350
  356DOPC  H13A48996   2.835   3.954   1.843 -1.2581  0.2026 -1.3952
  356DOPC  H13B48997   2.930   3.907   1.716 -0.0122 -1.3910  1.9412
  356DOPC  H13C48998   2.851   4.062   1.695 -0.9913  0.3094 -1.8639
  356DOPC   C1448999   2.600   3.974   1.717 -0.3831  0.0484 -0.2579
  356DOPC  H14A49000   2.613   4.079   1.694 -1.6959  0.5502  1.1694
  356DOPC  H14B49001   2.517   3.935   1.659  0.2837 -1.1686 -0.4416
  356DOPC  H14C49002   2.584   3.963   1.823  1.2046 -0.1967 -0.0102
  356DOPC   C1549003   2.733   3.886   1.527 -0.5392  0.8420  0.1011
  356DOPC  H15A49004   2.836   3.897   1.494  0.2729 -0.1994  2.0992
  356DOPC  H15B49005   2.665   3.959   1.485 -2.9361 -1.8577 -1.0664
  356DOPC  H15C49006   2.698   3.790   1.492  1.4280 -0.1842  0.7758
  356DOPC   C1149007   2.604   3.666   1.695 -0.3062 -0.2999 -0.1878
  356DOPC  H11A49008   2.517   3.721   1.735 -0.7897  0.0430 -1.6396
  356DOPC  H11B49009   2.592   3.659   1.585  0.7479 -0.3054 -0.3117
  356DOPC     P49010   2.570   3.523   1.909  0.3445  0.0629  0.2055
  356DOPC   O1349011   2.630   3.401   1.968 -0.4916  0.7641 -0.4325
  356DOPC   O1449012   2.419   3.527   1.896  0.0958 -0.4223 -0.8373
  356DOPC   O1249013   2.626   3.546   1.761 -0.0206  0.3196 -0.2408
  356DOPC   O1149014   2.618   3.653   1.981  0.3135 -0.0765 -0.6083
  356DOPC    C149015   2.742   3.653   2.053  0.0503  0.0059 -0.0307
  356DOPC    HA49016   2.790   3.753   2.051  0.9998 -0.3943  1.2242
  356DOPC    HB49017   2.820   3.587   2.009 -0.2751  0.7724 -1.8076
  356DOPC    C249018   2.720   3.624   2.206 -0.4462 -0.3815  0.1226
  356DOPC    HS49019   2.668   3.526   2.205 -0.6392 -0.2819 -1.1772
  356DOPC   O2149020   2.634   3.732   2.260 -0.4055 -0.1449  0.0300
  356DOPC   C2149021   2.558   3.697   2.356  0.7153 -0.8959  0.2202
  356DOPC   O2249022   2.541   3.580   2.389 -0.4589  0.4676  0.0428
  356DOPC   C2249023   2.491   3.820   2.414 -0.0468 -0.7048 -0.0910
  356DOPC   H2R49024   2.428   3.793   2.501 -0.6915  1.1346  0.0606
  356DOPC   H2S49025   2.427   3.865   2.335  0.3754  0.3025  0.1295
  356DOPC    C349026   2.854   3.616   2.288  0.0148  0.8989  0.3182
  356DOPC    HX49027   2.897   3.718   2.277  1.1441  0.4294  0.2645
  356DOPC    HY49028   2.920   3.548   2.230  0.9353  2.8242 -1.0472
  356DOPC   O3149029   2.832   3.578   2.422  0.4322 -0.0293 -0.2752
  356DOPC   C3149030   2.803   3.449   2.437 -0.0243  0.5289  0.3293
  356DOPC   O3249031   2.808   3.358   2.352  0.4305 -0.4488  0.2636
  356DOPC   C3249032   2.756   3.428   2.581 -0.2566 -0.1228 -0.1134
  356DOPC   H2X49033   2.848   3.449   2.640  0.3496  1.8420 -1.6178
  356DOPC   H2Y49034   2.681   3.509   2.596 -1.0220 -0.4927 -1.7118
  356DOPC   C2349035   2.588   3.922   2.454  0.5022  0.0488  0.1042
  356DOPC   H3R49036   2.535   4.015   2.482  0.2197 -0.1667  0.2830
  356DOPC   H3S49037   2.652   3.953   2.369  0.1238 -3.8777 -1.8825
  356DOPC   C2449038   2.681   3.864   2.568 -0.6885  0.0783 -0.2650
  356DOPC   H4R49039   2.752   3.948   2.587 -0.6072 -0.3276  1.3066
  356DOPC   H4S49040   2.742   3.785   2.518  0.3677  0.3402  0.5755
  356DOPC   C2549041   2.617   3.820   2.700  0.0489 -0.3851  0.2172
  356DOPC   H5R49042   2.572   3.722   2.673  0.9751 -0.6010 -0.6453
  356DOPC   H5S49043   2.533   3.888   2.727  1.5901  2.0064 -0.6121
  356DOPC   C2649044   2.717   3.819   2.816  0.9090 -0.2058 -0.1916
  356DOPC   H6R49045   2.756   3.921   2.838 -1.3923  0.9019 -0.9904
  356DOPC   H6S49046   2.808   3.767   2.780  2.0138  1.6173 -0.1632
  356DOPC   C2749047   2.659   3.763   2.949 -0.4804  0.0648 -0.4660
  356DOPC   H7R49048   2.748   3.758   3.016  0.3117  2.1690 -1.2691
  356DOPC   H7S49049   2.625   3.659   2.931  0.3547 -0.2992 -0.0357
  356DOPC   C2849050   2.552   3.842   3.027  0.4451  0.3179 -0.0691
  356DOPC   H8R49051   2.515   3.788   3.116 -0.9176  1.5643  0.1458
  356DOPC   H8S49052   2.467   3.831   2.957  0.5149 -1.4469  0.0661
  356DOPC   C2949053   2.591   3.988   3.059  0.4496  0.4639 -0.0618
  356DOPC   H9R49054   2.602   4.056   2.973  2.1928 -0.0662 -0.3092
  356DOPC  C21049055   2.604   4.037   3.182  0.5761  0.0628  0.7415
  356DOPC  H10R49056   2.624   4.144   3.198  1.3400 -0.1600  1.3249
  356DOPC  C21149057   2.587   3.960   3.313  0.0338  0.2246  0.2055
  356DOPC  H11R49058   2.609   3.852   3.296  2.7281  0.7981 -0.3402
  356DOPC  H11S49059   2.484   3.978   3.352  0.0880  1.0894 -0.0253
  356DOPC  C21249060   2.691   4.007   3.417 -0.7984 -0.2343  0.1031
  356DOPC  H12R49061   2.682   4.117   3.430  1.7385  0.0160  0.3818
  356DOPC  H12S49062   2.796   3.997   3.382 -0.5190 -0.4756  0.9821
  356DOPC  C21349063   2.668   3.943   3.554  0.2632  0.3209 -0.1818
  356DOPC  H13R49064   2.673   3.832   3.541 -4.6622 -0.5419  2.5673
  356DOPC  H13S49065   2.558   3.948   3.571  0.0579 -3.7892  0.7248
  356DOPC  C21449066   2.750   3.990   3.671 -0.6370 -0.5712 -0.6463
  356DOPC  H14R49067   2.854   4.007   3.636  0.3004 -0.0270  2.1184
  356DOPC  H14S49068   2.760   3.914   3.752  2.3090 -0.0189 -0.3599
  356DOPC  C21549069   2.720   4.132   3.721 -0.1947 -0.6359  0.3638
  356DOPC  H15R49070   2.675   4.195   3.641 -1.6188 -0.9374  0.8928
  356DOPC  H15S49071   2.815   4.174   3.760 -1.1773  1.6229  0.5179
  356DOPC  C21649072   2.628   4.135   3.842  0.5831 -1.0350  0.1467
  356DOPC  H16R49073   2.662   4.070   3.925  2.0635  1.6549  1.7803
  356DOPC  H16S49074   2.528   4.103   3.806 -1.7029  3.7602  1.4311
  356DOPC  C21749075   2.622   4.277   3.901 -0.1689 -0.0055 -0.8516
  356DOPC  H17R49076   2.727   4.310   3.917 -0.0152  0.0115 -1.8790
  356DOPC  H17S49077   2.578   4.268   4.003  1.0616  1.9036 -0.1064
  356DOPC  C21849078   2.556   4.387   3.816 -0.1278  0.6396  0.3220
  356DOPC  H18R49079   2.570   4.483   3.870 -0.6749  0.4758  0.7641
  356DOPC  H18S49080   2.448   4.365   3.802 -0.0133 -0.3031  0.8278
  356DOPC  H18T49081   2.615   4.396   3.722 -0.8413  1.6074 -0.0524
  356DOPC   C3349082   2.688   3.297   2.595  0.1833  0.4721  0.0595
  356DOPC   H3X49083   2.728   3.221   2.524 -1.8504 -0.7830  0.2000
  356DOPC   H3Y49084   2.579   3.293   2.576  0.4482 -0.6657 -1.4542
  356DOPC   C3449085   2.701   3.255   2.741  0.8094  0.5190  0.4800
  356DOPC   H4X49086   2.810   3.244   2.761  0.9039  2.0084  0.9087
  356DOPC   H4Y49087   2.660   3.151   2.739  1.5645  0.2192  0.2019
  356DOPC   C3549088   2.639   3.345   2.846 -0.0047  0.1147  0.5707
  356DOPC   H5X49089   2.531   3.355   2.822 -0.4998 -0.4805  2.4185
  356DOPC   H5Y49090   2.681   3.448   2.839 -0.9324  0.4445 -0.4938
  356DOPC   C3649091   2.648   3.277   2.980  0.4811  0.4463  0.0624
  356DOPC   H6X49092   2.583   3.337   3.047  1.4036  0.1934  1.2199
  356DOPC   H6Y49093   2.602   3.176   2.980  0.3170  0.5156 -0.6792
  356DOPC   C3749094   2.782   3.275   3.045 -0.5819  0.4469  0.1160
  356DOPC   H7X49095   2.840   3.182   3.030  0.4741  0.4420  3.3549
  356DOPC   H7Y49096   2.846   3.354   3.001 -0.2313 -0.5038 -1.1123
  356DOPC   C3849097   2.788   3.298   3.197  0.7075 -0.1276  0.1648
  356DOPC   H8X49098   2.886   3.271   3.242  0.2976  1.9110  2.4605
  356DOPC   H8Y49099   2.701   3.243   3.240 -0.4935  1.2944 -0.3417
  356DOPC   C3949100   2.754   3.445   3.223  0.2041 -0.0028  0.2767
  356DOPC   H9X49101   2.706   3.492   3.135  1.6908 -0.6526 -0.9105
  356DOPC  C31049102   2.760   3.504   3.339 -0.4125 -1.0634  0.2545
  356DOPC  H10X49103   2.754   3.614   3.345  2.9164 -0.7535 -0.2289
  356DOPC  C31149104   2.826   3.440   3.462 -0.9028 -0.3281 -0.3962
  356DOPC  H11X49105   2.891   3.353   3.439 -2.0669 -0.7717 -2.2564
  356DOPC  H11Y49106   2.751   3.401   3.535 -0.7228  0.3367  0.1501
  356DOPC  C31249107   2.910   3.537   3.555 -0.3709 -0.4928  0.0619
  356DOPC  H12X49108   2.856   3.633   3.572  2.4442  1.5864 -1.6181
  356DOPC  H12Y49109   2.998   3.572   3.496 -0.8124  0.0148 -0.3037
  356DOPC  C31349110   2.970   3.475   3.684  1.0928 -0.1815 -0.3120
  356DOPC  H13X49111   2.899   3.417   3.747  1.6018 -0.2521  0.2158
  356DOPC  H13Y49112   3.060   3.415   3.657  0.1862 -1.0920 -1.3551
  356DOPC  C31449113   3.034   3.587   3.774 -0.2240  0.0509 -0.0772
  356DOPC  H14X49114   3.112   3.628   3.705 -1.6389  1.1174 -1.0873
  356DOPC  H14Y49115   2.961   3.668   3.793  1.0823  1.0127  1.0286
  356DOPC  C31549116   3.095   3.538   3.908  0.7955  0.0516  0.5422
  356DOPC  H15X49117   3.193   3.586   3.928  0.8158  0.7869 -1.1811
  356DOPC  H15Y49118   3.114   3.428   3.901 -2.2198 -0.5265 -0.0920
  356DOPC  C31649119   2.997   3.555   4.032  0.1523  0.1025 -0.3036
  356DOPC  H16X49120   3.059   3.571   4.123  0.0731 -2.1109  0.2006
  356DOPC  H16Y49121   2.937   3.647   4.019 -0.9242 -0.7330 -1.4202
  356DOPC  C31749122   2.919   3.432   4.059  1.0664 -1.1415 -0.1795
  356DOPC  H17X49123   2.848   3.404   3.979  1.0443 -2.4723  0.2874
  356DOPC  H17Y49124   2.977   3.338   4.061 -0.7150 -2.3173 -1.3447
  356DOPC  C31849125   2.838   3.447   4.186  0.5276  0.5498 -0.3184
  356DOPC  H18X49126   2.894   3.492   4.271 -0.6265  3.5959 -1.0101
  356DOPC  H18Y49127   2.750   3.513   4.166  1.2758  2.2609  1.6743
  356DOPC  H18Z49128   2.793   3.350   4.215  0.6780  0.3230 -0.8298
  357DOPC     N49129  11.358   4.119   1.884  0.1064 -0.4366  0.1238
  357DOPC   C1249130  11.342   4.266   1.846  0.3881 -0.5063 -0.8069
  357DOPC  H12A49131  11.428   4.319   1.886 -1.6501  2.8810 -0.5421
  357DOPC  H12B49132  11.258   4.311   1.897 -1.4657 -2.2465 -2.1694
  357DOPC   C1349133  11.345   4.096   2.026 -0.5317  0.6354  0.6029
  357DOPC  H13A49134  11.427   4.139   2.082  0.6681  1.7081 -1.8117
  357DOPC  H13B49135  11.247   4.128   2.057 -0.3883  1.0601  0.6189
  357DOPC  H13C49136  11.365   3.990   2.041 -1.1217 -0.0362 -2.5652
  357DOPC   C1449137  11.499   4.073   1.842  0.7012  0.4578 -0.4828
  357DOPC  H14A49138  11.524   3.974   1.877  0.6590  0.5398 -0.2219
  357DOPC  H14B49139  11.496   4.062   1.735  0.8573  0.2194 -0.4624
  357DOPC  H14C49140  11.577   4.139   1.876 -0.1982  0.6720  1.2920
  357DOPC   C1549141  11.254   4.037   1.814  0.2524  0.0283 -0.9609
  357DOPC  H15A49142  11.240   4.054   1.709 -3.1348  0.5249 -0.5496
  357DOPC  H15B49143  11.153   4.058   1.845  0.0116 -0.3768 -1.4569
  357DOPC  H15C49144  11.285   3.935   1.832  1.9845  0.7012  0.1555
  357DOPC   C1149145  11.334   4.305   1.691 -0.3715 -0.0987 -0.1968
  357DOPC  H11A49146  11.377   4.406   1.672  1.7192 -0.8416  0.3083
  357DOPC  H11B49147  11.390   4.229   1.632 -2.5753 -0.9305 -1.3487
  357DOPC     P49148  11.106   4.423   1.666 -0.0573 -0.3937 -0.1686
  357DOPC   O1349149  10.973   4.396   1.609 -0.4112 -0.3223  0.2924
  357DOPC   O1449150  11.173   4.538   1.610  0.2922 -0.6410  0.7831
  357DOPC   O1249151  11.208   4.303   1.634  0.1280  0.3715 -0.6697
  357DOPC   O1149152  11.106   4.436   1.830  0.3062 -0.0892 -0.3485
  357DOPC    C149153  11.026   4.344   1.907  0.1608 -0.2535 -0.0469
  357DOPC    HA49154  11.076   4.246   1.887  0.6548  0.2913 -1.6587
  357DOPC    HB49155  10.921   4.342   1.872 -0.1336 -3.4376  0.6489
  357DOPC    C249156  11.033   4.371   2.066 -0.3956  0.3329  0.4899
  357DOPC    HS49157  10.985   4.470   2.082  1.3080  1.1330  0.8402
  357DOPC   O2149158  11.174   4.371   2.110  0.1641 -0.1545 -0.1497
  357DOPC   C2149159  11.202   4.469   2.195 -0.4428  0.1094 -0.3814
  357DOPC   O2249160  11.135   4.565   2.222  0.1824 -0.2857  0.1191
  357DOPC   C2249161  11.346   4.440   2.246 -0.8313 -0.6406  0.0459
  357DOPC   H2R49162  11.404   4.532   2.223 -0.8685 -0.8245 -0.8244
  357DOPC   H2S49163  11.398   4.362   2.187  0.5688 -1.3559  2.1261
  357DOPC    C349164  10.958   4.274   2.158  0.0818  0.9230  0.5561
  357DOPC    HX49165  10.996   4.170   2.142 -0.3360  0.5430  1.9089
  357DOPC    HY49166  10.852   4.259   2.129  0.0663  1.9201  0.0475
  357DOPC   O3149167  10.979   4.303   2.301 -0.4814 -0.3279 -0.1855
  357DOPC   C3149168  10.897   4.404   2.338  0.4899 -0.4651 -0.6887
  357DOPC   O3249169  10.808   4.456   2.273 -0.7247 -0.0949 -0.2674
  357DOPC   C3249170  10.951   4.445   2.477  0.2040  0.0851 -0.2226
  357DOPC   H2X49171  10.924   4.358   2.541  5.2511  0.0534  2.3757
  357DOPC   H2Y49172  11.062   4.449   2.480  0.3098 -1.2167 -1.2734
  357DOPC   C2349173  11.363   4.408   2.393 -0.8971 -0.3941  0.3700
  357DOPC   H3R49174  11.453   4.343   2.404  1.0507  1.8246 -1.3584
  357DOPC   H3S49175  11.280   4.353   2.441 -1.3576 -0.0003  0.0390
  357DOPC   C2449176  11.379   4.536   2.470  0.5677  0.8792 -0.7885
  357DOPC   H4R49177  11.302   4.605   2.429  1.2820  1.6229 -0.9089
  357DOPC   H4S49178  11.479   4.584   2.463  1.4813 -0.7633  0.3554
  357DOPC   C2549179  11.355   4.501   2.624  0.0802 -0.7749  0.3747
  357DOPC   H5R49180  11.427   4.421   2.653  2.5426  1.3306  0.4908
  357DOPC   H5S49181  11.248   4.477   2.637 -0.3251  1.0993  0.7125
  357DOPC   C2649182  11.372   4.624   2.711  0.3830 -1.0182  0.3100
  357DOPC   H6R49183  11.312   4.705   2.663  2.3411  1.1028  1.2636
  357DOPC   H6S49184  11.472   4.666   2.690 -0.9056  1.3491 -1.6332
  357DOPC   C2749185  11.344   4.596   2.858  0.1815  0.3403  0.0045
  357DOPC   H7R49186  11.412   4.511   2.877 -0.7936 -1.0826 -2.3564
  357DOPC   H7S49187  11.238   4.566   2.866  0.3799 -0.1616  0.9072
  357DOPC   C2849188  11.385   4.716   2.952  0.1564  0.4862  0.0202
  357DOPC   H8R49189  11.324   4.805   2.926  1.1129  0.8561 -1.0609
  357DOPC   H8S49190  11.491   4.742   2.933  0.0961  0.8492  0.1669
  357DOPC   C2949191  11.370   4.694   3.105 -0.0880  0.5530  0.1593
  357DOPC   H9R49192  11.276   4.724   3.153  1.2027  1.8695  1.9598
  357DOPC  C21049193  11.460   4.669   3.195  0.1287  0.0296 -0.2798
  357DOPC  H10R49194  11.442   4.687   3.302  2.0830 -1.2667  0.3340
  357DOPC  C21149195  11.606   4.644   3.169  0.1695  0.6078  0.1477
  357DOPC  H11R49196  11.612   4.617   3.061 -1.2140  1.3201 -0.1260
  357DOPC  H11S49197  11.647   4.565   3.234  1.6292 -0.3985 -1.8750
  357DOPC  C21249198  11.708   4.769   3.180 -0.3113 -0.1075  0.2375
  357DOPC  H12R49199  11.670   4.865   3.141 -2.3852 -1.7160 -1.9851
  357DOPC  H12S49200  11.791   4.747   3.110 -1.6739 -0.1394 -1.4046
  357DOPC  C21349201  11.758   4.786   3.329  0.0617  0.9670  0.1100
  357DOPC  H13R49202  11.802   4.690   3.364  0.8306  1.2861  0.0443
  357DOPC  H13S49203  11.668   4.809   3.390 -1.6685  0.9710 -2.3324
  357DOPC  C21449204  11.863   4.890   3.341 -0.2244 -0.0493  0.1791
  357DOPC  H14R49205  11.811   4.984   3.310  0.5814 -0.0779 -1.4076
  357DOPC  H14S49206  11.950   4.872   3.274  0.4179 -1.7749  1.4014
  357DOPC  C21549207  11.908   4.907   3.487 -0.2085 -0.3637 -0.1047
  357DOPC  H15R49208  11.950   4.813   3.530 -2.7840 -1.3531  0.4364
  357DOPC  H15S49209  11.819   4.922   3.551  0.2897 -0.4150  0.6159
  357DOPC  C21649210  11.997   5.024   3.508  1.3307 -0.3611  0.1654
  357DOPC  H16R49211  11.949   5.105   3.449 -0.6761 -1.1595  0.6379
  357DOPC  H16S49212  12.096   5.012   3.459  0.1547 -0.5571 -2.2888
  357DOPC  C21749213  12.025   5.055   3.662  0.4543  0.4161  0.7075
  357DOPC  H17R49214  11.937   5.024   3.722  0.9679  0.2240  1.3823
  357DOPC  H17S49215  12.046   5.163   3.649 -0.3470  0.3964 -0.9981
  357DOPC  C21849216  12.153   4.993   3.710 -0.1807 -0.7767 -0.6006
  357DOPC  H18R49217  12.230   5.018   3.633  0.9397  1.2938  1.0706
  357DOPC  H18S49218  12.123   4.887   3.719  1.9610 -1.4377 -0.6041
  357DOPC  H18T49219  12.173   5.034   3.811  0.1753 -1.1949 -0.4998
  357DOPC   C3349220  10.911   4.584   2.527  0.0402 -0.1386  0.3554
  357DOPC   H3X49221  10.803   4.607   2.513  0.0478 -0.7442 -0.7525
  357DOPC   H3Y49222  10.967   4.668   2.479  0.5004 -1.6296 -1.8722
  357DOPC   C3449223  10.923   4.593   2.681 -0.1596  0.3029  0.1417
  357DOPC   H4X49224  11.029   4.566   2.702 -0.1587  0.4400  0.3110
  357DOPC   H4Y49225  10.857   4.524   2.739  0.4981 -1.5197 -1.1658
  357DOPC   C3549226  10.882   4.727   2.734 -0.2384 -0.4076 -0.4926
  357DOPC   H5X49227  10.774   4.750   2.733 -0.1683  0.4197  2.4863
  357DOPC   H5Y49228  10.927   4.812   2.677 -2.1844 -0.6774 -2.5841
  357DOPC   C3649229  10.929   4.733   2.879 -0.4679  0.7193  0.2761
  357DOPC   H6X49230  10.869   4.656   2.932 -0.8066 -0.6251 -1.9289
  357DOPC   H6Y49231  11.037   4.709   2.883 -0.5885 -0.2940 -1.3458
  357DOPC   C3749232  10.917   4.867   2.952  0.2025 -0.0221 -0.9275
  357DOPC   H7X49233  10.944   4.951   2.885  1.9411 -2.1248 -3.0576
  357DOPC   H7Y49234  10.814   4.884   2.991  1.3960  0.7556  2.2829
  357DOPC   C3849235  11.002   4.883   3.078  0.5630  0.8726 -0.6438
  357DOPC   H8X49236  10.992   4.986   3.120  0.1395  0.8862 -0.7684
  357DOPC   H8Y49237  11.105   4.873   3.039  1.5748  0.4798  1.9179
  357DOPC   C3949238  10.971   4.777   3.179 -0.0500  0.5220  0.5530
  357DOPC   H9X49239  10.921   4.685   3.144  0.4855  0.6841 -0.6858
  357DOPC  C31049240  11.007   4.796   3.307  0.2070 -0.1869  0.1333
  357DOPC  H10X49241  11.022   4.713   3.377  1.1732  2.1658  2.9156
  357DOPC  C31149242  11.066   4.921   3.375  0.2689 -0.2056  0.0717
  357DOPC  H11X49243  11.089   4.999   3.299 -1.9894  0.0391 -0.4183
  357DOPC  H11Y49244  11.167   4.901   3.418 -0.1762  0.8032  1.7211
  357DOPC  C31249245  10.973   4.994   3.475  0.7437 -0.3265 -0.2940
  357DOPC  H12X49246  11.021   5.071   3.540 -0.6371  0.3730 -0.0442
  357DOPC  H12Y49247  10.938   4.914   3.543  2.5178 -1.6132 -0.8312
  357DOPC  C31349248  10.842   5.044   3.401 -0.1624 -0.1698  0.6390
  357DOPC  H13X49249  10.869   5.111   3.317 -0.0907  2.7147  2.8001
  357DOPC  H13Y49250  10.794   4.957   3.351 -3.2467  1.9321 -0.3649
  357DOPC  C31449251  10.736   5.113   3.485  0.3954 -0.3205  0.1894
  357DOPC  H14X49252  10.713   5.049   3.573 -0.6125 -1.2503 -0.7216
  357DOPC  H14Y49253  10.786   5.208   3.515  2.2779 -1.6824  1.6039
  357DOPC  C31549254  10.600   5.136   3.422  0.8542 -0.1699  1.2456
  357DOPC  H15X49255  10.554   5.041   3.388 -0.6711  0.6796  0.8584
  357DOPC  H15Y49256  10.607   5.203   3.334  0.0154 -2.8093 -0.9499
  357DOPC  C31649257  10.499   5.198   3.526 -0.4302  0.2051  0.4224
  357DOPC  H16X49258  10.398   5.191   3.479  0.2381  0.6285 -1.1508
  357DOPC  H16Y49259  10.508   5.133   3.615  0.9322  1.7785  1.4899
  357DOPC  C31749260  10.541   5.336   3.576 -0.0755 -0.0993  0.4509
  357DOPC  H17X49261  10.621   5.328   3.652 -0.0325 -1.1481  0.3148
  357DOPC  H17Y49262  10.584   5.382   3.485 -1.7386 -0.7535 -0.7193
  357DOPC  C31849263  10.421   5.408   3.646  0.9937 -0.0815  0.4885
  357DOPC  H18X49264  10.444   5.509   3.688 -2.1830  0.7730  0.4188
  357DOPC  H18Y49265  10.350   5.422   3.562 -0.0905  0.1349  1.4040
  357DOPC  H18Z49266  10.376   5.346   3.726  1.3649  0.8578  1.4479
  358DOPC     N49267   6.713   4.605   2.244  0.1714  0.2933 -0.2816
  358DOPC   C1249268   6.642   4.531   2.353  0.9892  1.2598 -0.4374
  358DOPC  H12A49269   6.713   4.498   2.427  0.0757  1.7765  0.7032
  358DOPC  H12B49270   6.596   4.443   2.310  0.7488  1.2710 -0.2003
  358DOPC   C1349271   6.816   4.701   2.301 -0.2694 -0.0031  0.1320
  358DOPC  H13A49272   6.774   4.778   2.364 -0.4389  0.0568 -0.0535
  358DOPC  H13B49273   6.878   4.644   2.369 -1.0189 -1.2918 -0.2137
  358DOPC  H13C49274   6.887   4.745   2.233  1.0629 -0.4593  1.1909
  358DOPC   C1449275   6.612   4.676   2.162  0.3635 -0.0425 -0.6092
  358DOPC  H14A49276   6.576   4.761   2.217  1.0787  0.8179 -1.4403
  358DOPC  H14B49277   6.658   4.719   2.074 -1.9472  1.6458 -1.0639
  358DOPC  H14C49278   6.520   4.629   2.134  0.4284 -0.0845 -0.7522
  358DOPC   C1549279   6.793   4.510   2.157 -0.3947 -0.3660  0.1220
  358DOPC  H15A49280   6.875   4.467   2.212  0.1416  0.0417 -0.3473
  358DOPC  H15B49281   6.844   4.565   2.079 -1.6884  2.3329  1.0887
  358DOPC  H15C49282   6.732   4.434   2.111  1.3388 -1.5093 -0.4168
  358DOPC   C1149283   6.543   4.614   2.434  0.7064 -0.3673  0.0808
  358DOPC  H11A49284   6.527   4.570   2.535 -1.2602 -1.0323 -0.4740
  358DOPC  H11B49285   6.599   4.704   2.468  1.1197 -0.4961 -0.2526
  358DOPC     P49286   6.293   4.562   2.396  0.4206  0.4872 -0.1014
  358DOPC   O1349287   6.311   4.417   2.374  0.7352 -0.6484 -0.5982
  358DOPC   O1449288   6.174   4.629   2.336  0.1288  0.1991  0.4962
  358DOPC   O1249289   6.425   4.645   2.364  0.2755 -0.4137  0.4968
  358DOPC   O1149290   6.284   4.577   2.550 -0.0962  0.2413 -0.2895
  358DOPC    C149291   6.214   4.690   2.605 -0.2794  0.5987  0.0987
  358DOPC    HA49292   6.208   4.776   2.535  0.2543  0.3011 -0.3195
  358DOPC    HB49293   6.267   4.722   2.697 -0.4060 -2.3466  1.3303
  358DOPC    C249294   6.072   4.655   2.658  0.5100 -0.2365 -0.5396
  358DOPC    HS49295   6.014   4.612   2.573 -2.2196  0.4400  0.8449
  358DOPC   O2149296   6.007   4.771   2.712 -0.0143  0.8892 -0.0160
  358DOPC   C2149297   5.872   4.760   2.726 -0.5170  0.5226  0.2890
  358DOPC   O2249298   5.809   4.668   2.678  0.2693  0.3468 -0.0352
  358DOPC   C2249299   5.819   4.881   2.809 -0.3945 -0.4357 -0.0731
  358DOPC   H2R49300   5.799   4.959   2.732 -0.5714 -1.5852 -1.2334
  358DOPC   H2S49301   5.909   4.929   2.852 -0.4539 -0.5109  0.1349
  358DOPC    C349302   6.085   4.543   2.768 -0.7670 -0.0444  0.5757
  358DOPC    HX49303   6.109   4.591   2.866 -1.5189  0.7231  0.4001
  358DOPC    HY49304   6.168   4.469   2.763  0.9690  1.7761  0.8373
  358DOPC   O3149305   5.969   4.470   2.799  0.3026  0.0295 -0.3300
  358DOPC   C3149306   5.946   4.346   2.747  0.1875  0.1775  0.0960
  358DOPC   O3249307   6.009   4.299   2.654  0.1886  0.9224 -0.0506
  358DOPC   C3249308   5.820   4.292   2.815  0.3161 -0.0362 -0.7275
  358DOPC   H2X49309   5.740   4.368   2.832  0.1845 -0.2905 -0.1925
  358DOPC   H2Y49310   5.774   4.218   2.747  0.0172  1.3938 -2.1289
  358DOPC   C2349311   5.704   4.839   2.898 -0.0705 -0.5905 -0.1025
  358DOPC   H3R49312   5.639   4.786   2.826  0.4156  1.6599 -2.3030
  358DOPC   H3S49313   5.633   4.916   2.935  1.2665  0.5087  0.2781
  358DOPC   C2449314   5.754   4.753   3.010 -0.6161 -0.2266 -0.2955
  358DOPC   H4R49315   5.849   4.803   3.038  0.1019 -0.0764 -2.8058
  358DOPC   H4S49316   5.781   4.650   2.980 -2.0583  0.2196 -3.4979
  358DOPC   C2549317   5.663   4.762   3.129  0.3488  0.6981  0.2889
  358DOPC   H5R49318   5.563   4.722   3.100  0.6369 -0.6652  1.0814
  358DOPC   H5S49319   5.640   4.870   3.140  0.9369  0.8618 -0.0318
  358DOPC   C2649320   5.712   4.697   3.263  0.5984  0.4349  0.8340
  358DOPC   H6R49321   5.637   4.714   3.343 -1.1290 -2.4103 -0.0329
  358DOPC   H6S49322   5.808   4.735   3.303  0.3080  0.3512  1.6440
  358DOPC   C2749323   5.735   4.552   3.240 -0.0891  0.1696 -0.3044
  358DOPC   H7R49324   5.826   4.547   3.177 -0.1679 -0.3928 -0.3842
  358DOPC   H7S49325   5.648   4.502   3.191 -1.6856 -0.1788  2.6404
  358DOPC   C2849326   5.776   4.475   3.367  0.2689  0.5001 -0.3513
  358DOPC   H8R49327   5.872   4.513   3.407  0.4105  0.4351 -0.6298
  358DOPC   H8S49328   5.794   4.370   3.337  1.3768  0.4572  0.4078
  358DOPC   C2949329   5.663   4.474   3.466  0.0613  0.3615 -0.2680
  358DOPC   H9R49330   5.586   4.397   3.451  0.3016  0.2079 -0.7436
  358DOPC  C21049331   5.644   4.555   3.573  0.5062  0.4934 -0.2412
  358DOPC  H10R49332   5.560   4.529   3.639  1.2753 -0.0900  0.5416
  358DOPC  C21149333   5.726   4.669   3.619  0.6500 -0.5713  0.1405
  358DOPC  H11R49334   5.792   4.711   3.540 -0.2507  1.4304  0.3941
  358DOPC  H11S49335   5.792   4.645   3.705 -1.6929  0.8728  2.4651
  358DOPC  C21249336   5.658   4.791   3.667 -0.5622 -0.1733  0.5242
  358DOPC  H12R49337   5.608   4.849   3.587  1.9006 -1.6996 -2.2881
  358DOPC  H12S49338   5.742   4.859   3.691 -2.6739  2.2465  1.6262
  358DOPC  C21349339   5.562   4.777   3.785  0.0181 -0.6877 -0.0958
  358DOPC  H13R49340   5.621   4.762   3.879 -0.4397 -2.0438 -0.0072
  358DOPC  H13S49341   5.498   4.688   3.769 -2.6319  0.9701  0.7328
  358DOPC  C21449342   5.471   4.900   3.795  0.3118 -0.8253  0.6150
  358DOPC  H14R49343   5.439   4.947   3.700 -0.1494  1.9726  2.0310
  358DOPC  H14S49344   5.527   4.982   3.845 -1.6705  0.5987  0.6568
  358DOPC  C21549345   5.349   4.874   3.882  0.4841  0.0109 -0.0959
  358DOPC  H15R49346   5.356   4.841   3.987 -1.4408  2.0799  0.7645
  358DOPC  H15S49347   5.291   4.800   3.822  1.8144  0.4217 -1.9669
  358DOPC  C21649348   5.254   4.993   3.885  0.4038  0.6535 -0.9454
  358DOPC  H16R49349   5.157   4.956   3.925 -0.8909  1.6542 -2.9806
  358DOPC  H16S49350   5.228   5.028   3.783 -1.9372 -0.3945 -0.7785
  358DOPC  C21749351   5.303   5.115   3.976  0.0791  1.0216 -0.7609
  358DOPC  H17R49352   5.228   5.198   3.980  0.9530  1.7939  0.4246
  358DOPC  H17S49353   5.401   5.154   3.941  0.0528 -0.0071 -2.0658
  358DOPC  C21849354   5.331   5.066   4.118 -0.6275  0.5576  0.5862
  358DOPC  H18R49355   5.433   5.022   4.118 -0.7036  0.3478 -0.6419
  358DOPC  H18S49356   5.270   4.985   4.163  1.6376 -2.5738 -1.5775
  358DOPC  H18T49357   5.323   5.157   4.181  1.0994  0.8075  0.4869
  358DOPC   C3349358   5.844   4.226   2.956  0.3289 -0.2071  0.3431
  358DOPC   H3X49359   5.884   4.301   3.027 -0.3741  0.8595 -0.3560
  358DOPC   H3Y49360   5.919   4.147   2.933 -0.4677 -0.6033 -1.0506
  358DOPC   C3449361   5.716   4.154   3.000 -0.7941 -0.3249  0.0266
  358DOPC   H4X49362   5.692   4.060   2.947  2.1685 -1.0845 -0.1242
  358DOPC   H4Y49363   5.629   4.221   2.980 -1.6327 -1.1800  0.7014
  358DOPC   C3549364   5.723   4.125   3.153 -0.2181  0.3599  0.2807
  358DOPC   H5X49365   5.755   4.219   3.203  1.8743 -0.9591  1.5757
  358DOPC   H5Y49366   5.817   4.066   3.157 -0.6078 -0.4750 -1.7324
  358DOPC   C3649367   5.606   4.053   3.211  0.3106 -0.3634 -0.1582
  358DOPC   H6X49368   5.512   4.111   3.203 -0.3458 -1.3456  0.2465
  358DOPC   H6Y49369   5.584   3.962   3.151 -0.9124 -0.5329  0.5167
  358DOPC   C3749370   5.626   4.015   3.353  0.6007 -0.2244 -0.3766
  358DOPC   H7X49371   5.708   3.940   3.347 -0.0385 -0.9766  0.1469
  358DOPC   H7Y49372   5.668   4.100   3.411  2.2073 -1.0104 -0.3193
  358DOPC   C3849373   5.506   3.947   3.427  0.6764 -0.1426  0.0582
  358DOPC   H8X49374   5.547   3.905   3.521  1.0685 -1.5489 -0.7087
  358DOPC   H8Y49375   5.486   3.857   3.365 -3.1201 -0.5504  1.6457
  358DOPC   C3949376   5.386   4.034   3.460 -0.0836 -0.1843  0.3084
  358DOPC   H9X49377   5.390   4.133   3.413  2.2060 -1.0970 -1.6054
  358DOPC  C31049378   5.295   4.004   3.554 -0.1267 -0.6362  0.4895
  358DOPC  H10X49379   5.227   4.088   3.574  0.1976 -0.4102  0.6474
  358DOPC  C31149380   5.273   3.885   3.642  0.2303  0.5666 -0.2230
  358DOPC  H11X49381   5.314   3.899   3.744 -2.2271 -0.4179  0.9929
  358DOPC  H11Y49382   5.336   3.799   3.611 -0.2619 -0.8461  2.4159
  358DOPC  C31249383   5.132   3.831   3.661 -0.6903 -0.0514  0.1110
  358DOPC  H12X49384   5.097   3.769   3.576 -0.4502 -1.0012  0.6891
  358DOPC  H12Y49385   5.062   3.916   3.676  0.5562  0.9501  0.4674
  358DOPC  C31349386   5.121   3.731   3.776 -0.2077 -0.7383  0.1607
  358DOPC  H13X49387   5.198   3.651   3.774 -1.2249 -1.7478  0.2795
  358DOPC  H13Y49388   5.134   3.786   3.871  1.4706  0.2236 -0.5804
  358DOPC  C31449389   4.983   3.656   3.776  1.1049 -0.2460 -0.0823
  358DOPC  H14X49390   4.974   3.584   3.861 -0.1699  0.6077  0.5372
  358DOPC  H14Y49391   4.901   3.730   3.787  2.8375  2.2191 -2.7004
  358DOPC  C31549392   4.944   3.578   3.648 -0.7842  0.7375 -0.6366
  358DOPC  H15X49393   5.026   3.505   3.631 -1.1462 -0.0970  1.0004
  358DOPC  H15Y49394   4.952   3.644   3.559 -0.4769  0.3192 -0.9289
  358DOPC  C31649395   4.806   3.506   3.656 -0.2239  0.2377  0.3134
  358DOPC  H16X49396   4.803   3.421   3.727 -1.6923  0.3968  0.4749
  358DOPC  H16Y49397   4.734   3.587   3.681  1.8684  1.6229  2.1690
  358DOPC  C31749398   4.749   3.446   3.524  0.0979 -0.5210 -0.3372
  358DOPC  H17X49399   4.834   3.392   3.477 -0.2594 -1.0649 -0.3630
  358DOPC  H17Y49400   4.660   3.382   3.541 -0.2509  0.1224  0.2726
  358DOPC  C31849401   4.702   3.549   3.420  0.5821 -0.3310  0.3580
  358DOPC  H18X49402   4.616   3.610   3.456  0.2950 -1.2123  1.1991
  358DOPC  H18Y49403   4.783   3.619   3.389  0.1768  0.8351  1.7602
  358DOPC  H18Z49404   4.663   3.499   3.329 -1.2908  2.4126 -0.4969
  359DOPC     N49405   0.767   7.837   1.822 -0.0111  0.1737  0.6354
  359DOPC   C1249406   0.719   7.712   1.742  0.0400 -0.0029  0.0541
  359DOPC  H12A49407   0.641   7.737   1.671 -0.4282 -1.9537 -0.1700
  359DOPC  H12B49408   0.673   7.637   1.805  1.2441 -1.2134 -0.4640
  359DOPC   C1349409   0.817   7.950   1.735 -0.3214  0.1092  0.0345
  359DOPC  H13A49410   0.757   7.962   1.647  1.8566  0.3433 -1.4995
  359DOPC  H13B49411   0.826   8.048   1.780  0.2981 -0.0026  0.1683
  359DOPC  H13C49412   0.915   7.921   1.701  0.2117  3.3095 -1.5481
  359DOPC   C1449413   0.869   7.803   1.923  0.1437  0.5219 -0.7117
  359DOPC  H14A49414   0.842   7.730   1.998  0.6690  0.4311 -0.6062
  359DOPC  H14B49415   0.954   7.766   1.868  0.9811 -0.2470  0.9907
  359DOPC  H14C49416   0.909   7.889   1.975  0.1674  0.3406 -0.4223
  359DOPC   C1549417   0.641   7.887   1.885  0.3240  1.0844  0.1286
  359DOPC  H15A49418   0.573   7.935   1.818  1.7305  0.4022 -1.8866
  359DOPC  H15B49419   0.669   7.955   1.964 -1.0370  1.4444  0.3092
  359DOPC  H15C49420   0.589   7.809   1.940  0.1498  0.9471 -0.2333
  359DOPC   C1149421   0.824   7.633   1.658 -0.6429 -0.9773 -0.0724
  359DOPC  H11A49422   0.887   7.588   1.738 -0.3177 -0.5173 -0.0682
  359DOPC  H11B49423   0.766   7.554   1.606 -1.9474  0.7350 -1.3677
  359DOPC     P49424   1.038   7.703   1.548 -0.3134  0.3391 -0.0612
  359DOPC   O1349425   1.089   7.827   1.486  0.3505  0.5701 -0.0814
  359DOPC   O1449426   1.070   7.571   1.478  0.2706 -0.6068 -0.3128
  359DOPC   O1249427   0.888   7.717   1.565  0.5029  0.0284  0.0235
  359DOPC   O1149428   1.092   7.701   1.692  0.0018 -0.1537  0.0484
  359DOPC    C149429   1.211   7.657   1.748  0.0852 -0.2462  0.3070
  359DOPC    HA49430   1.285   7.638   1.667  0.4064  1.3339  0.2143
  359DOPC    HB49431   1.187   7.567   1.809 -1.8329  1.0668  1.5839
  359DOPC    C249432   1.264   7.771   1.844  0.4711  0.5141 -0.2625
  359DOPC    HS49433   1.374   7.755   1.840  0.2094 -1.5381 -0.2046
  359DOPC   O2149434   1.215   7.740   1.976 -0.1098 -0.1932 -0.1967
  359DOPC   C2149435   1.287   7.780   2.068  0.9958 -0.8240  0.5302
  359DOPC   O2249436   1.402   7.822   2.061  0.0258  0.3375 -0.1145
  359DOPC   C2249437   1.208   7.773   2.199  0.4086 -0.6036 -0.3087
  359DOPC   H2R49438   1.278   7.771   2.285  0.1180  1.6455  0.0363
  359DOPC   H2S49439   1.133   7.691   2.200  0.1948 -0.4062  0.1487
  359DOPC    C349440   1.229   7.909   1.805  0.4311  0.3235 -0.1368
  359DOPC    HX49441   1.121   7.922   1.823  0.7242  0.6259  1.6773
  359DOPC    HY49442   1.251   7.913   1.697  0.6288  0.8374 -0.0765
  359DOPC   O3149443   1.316   7.997   1.883  0.6446  0.0519 -0.1451
  359DOPC   C3149444   1.253   8.096   1.944 -0.7571 -0.1747 -0.2291
  359DOPC   O3249445   1.132   8.118   1.941 -0.1773  0.0759 -0.2109
  359DOPC   C3249446   1.356   8.165   2.031  0.5972 -0.0117 -0.1902
  359DOPC   H2X49447   1.410   8.086   2.086  1.5552  0.3936 -0.5194
  359DOPC   H2Y49448   1.435   8.215   1.970  1.1731 -0.5619  0.0993
  359DOPC   C2349449   1.124   7.906   2.217 -0.2984  0.3281  0.0414
  359DOPC   H3R49450   1.032   7.906   2.154  0.2108  1.7248 -0.7281
  359DOPC   H3S49451   1.185   7.995   2.196 -1.2142  1.4011  1.7179
  359DOPC   C2449452   1.067   7.923   2.368  0.3939 -0.0649 -0.3440
  359DOPC   H4R49453   1.001   7.838   2.394  0.7691 -0.5157 -0.8394
  359DOPC   H4S49454   1.013   8.020   2.358  0.4066 -0.0822 -0.5917
  359DOPC   C2549455   1.182   7.928   2.470 -0.8065 -0.4353 -0.2277
  359DOPC   H5R49456   1.260   7.995   2.430 -0.8628 -0.8590 -1.0799
  359DOPC   H5S49457   1.226   7.828   2.494  1.5264  0.4130 -0.7090
  359DOPC   C2649458   1.135   7.979   2.605 -0.6002  0.5571  0.0672
  359DOPC   H6R49459   1.093   8.078   2.577  2.6343  2.1853  0.4215
  359DOPC   H6S49460   1.219   7.990   2.678 -0.3006 -2.3854  0.2605
  359DOPC   C2749461   1.037   7.884   2.673  0.0015 -0.1698 -0.0892
  359DOPC   H7R49462   1.064   7.778   2.653  1.3723 -0.1849  1.6290
  359DOPC   H7S49463   0.949   7.888   2.605  0.3890 -1.1927 -0.6867
  359DOPC   C2849464   1.004   7.914   2.821  0.7555  0.2556 -0.0768
  359DOPC   H8R49465   0.971   8.019   2.836  1.5963  0.3690  1.0977
  359DOPC   H8S49466   1.099   7.905   2.877  1.2000 -0.2164 -0.9020
  359DOPC   C2949467   0.892   7.829   2.880  0.1265  0.3801  0.0319
  359DOPC   H9R49468   0.825   7.777   2.810 -0.9010 -1.5941  2.3223
  359DOPC  C21049469   0.878   7.786   3.006 -0.2567 -0.0933 -0.3948
  359DOPC  H10R49470   0.791   7.730   3.043  0.8970 -1.0352  1.0094
  359DOPC  C21149471   0.969   7.834   3.117 -0.3081  0.3994  0.1725
  359DOPC  H11R49472   0.949   7.942   3.133  0.0297  0.5660 -0.5077
  359DOPC  H11S49473   1.074   7.830   3.080  0.7755 -0.1116  3.0044
  359DOPC  C21249474   0.962   7.751   3.247 -0.3151 -0.0491 -0.1683
  359DOPC  H12R49475   0.960   7.647   3.209  3.7426  0.1106 -1.2458
  359DOPC  H12S49476   0.871   7.780   3.303  0.2448  3.5413 -0.8689
  359DOPC  C21349477   1.089   7.754   3.342  0.0673 -0.2958 -0.1895
  359DOPC  H13R49478   1.097   7.858   3.380 -0.4216  0.1236 -1.1770
  359DOPC  H13S49479   1.181   7.716   3.293 -0.2145 -0.0099 -0.9627
  359DOPC  C21449480   1.067   7.658   3.465  0.4804 -0.7111 -0.4194
  359DOPC  H14R49481   1.152   7.587   3.464  2.5340  1.5398 -2.7169
  359DOPC  H14S49482   0.969   7.609   3.448  0.4983 -0.2357 -2.0479
  359DOPC  C21549483   1.071   7.724   3.604  0.1096  0.1159  0.2177
  359DOPC  H15R49484   1.012   7.662   3.675 -0.9141  0.4536 -0.3159
  359DOPC  H15S49485   1.014   7.818   3.588  1.6607  0.9798 -0.5180
  359DOPC  C21649486   1.213   7.753   3.650 -0.5638  0.3772  0.2179
  359DOPC  H16R49487   1.272   7.797   3.566 -0.2870 -1.1815 -0.4459
  359DOPC  H16S49488   1.263   7.658   3.680  0.0657  0.5265 -0.3194
  359DOPC  C21749489   1.225   7.835   3.778  0.2886 -0.4337 -0.8037
  359DOPC  H17R49490   1.153   7.920   3.769 -1.3611 -1.7190 -0.3327
  359DOPC  H17S49491   1.325   7.882   3.793 -1.2505  2.7954  0.3524
  359DOPC  C21849492   1.191   7.770   3.913  1.0623  0.3875 -0.5859
  359DOPC  H18R49493   1.190   7.850   3.990 -3.2929 -1.1137  1.2690
  359DOPC  H18S49494   1.270   7.698   3.944  0.1317  0.0425  1.1106
  359DOPC  H18T49495   1.086   7.734   3.915  1.5712 -1.1450  1.0477
  359DOPC   C3349496   1.296   8.266   2.138 -0.3710  0.3964  0.4937
  359DOPC   H3X49497   1.189   8.242   2.157 -0.4421 -2.5395 -2.7287
  359DOPC   H3Y49498   1.298   8.370   2.097 -1.6907 -0.7936 -2.9327
  359DOPC   C3449499   1.377   8.271   2.264 -0.1262  0.3328 -0.2568
  359DOPC   H4X49500   1.469   8.330   2.244  0.1672 -0.9475 -3.0635
  359DOPC   H4Y49501   1.400   8.168   2.299 -0.4491  0.0975 -0.7229
  359DOPC   C3549502   1.311   8.331   2.381  0.4199  0.4647  0.2170
  359DOPC   H5X49503   1.212   8.283   2.391  0.4476  0.3251 -0.1582
  359DOPC   H5Y49504   1.291   8.434   2.345 -0.5046 -0.3010 -1.5518
  359DOPC   C3649505   1.396   8.314   2.511  0.1101 -0.4296  0.6808
  359DOPC   H6X49506   1.413   8.211   2.548  0.9504 -0.1447  1.1059
  359DOPC   H6Y49507   1.498   8.356   2.497 -0.4333  0.6423 -0.2341
  359DOPC   C3749508   1.328   8.394   2.616  0.0077  0.0414 -0.2362
  359DOPC   H7X49509   1.321   8.499   2.581  0.4955 -0.2574 -1.2483
  359DOPC   H7Y49510   1.224   8.357   2.630 -0.5919  1.9392  0.7245
  359DOPC   C3849511   1.383   8.394   2.762  0.8293  0.2034 -0.3040
  359DOPC   H8X49512   1.484   8.441   2.765  0.9104  0.2167 -2.1766
  359DOPC   H8Y49513   1.398   8.293   2.804 -0.3853  0.5261  0.9476
  359DOPC   C3949514   1.292   8.468   2.856  0.2881 -0.4928  0.1405
  359DOPC   H9X49515   1.262   8.564   2.811  2.1896 -0.4064 -1.0322
  359DOPC  C31049516   1.220   8.422   2.965 -0.3215 -1.0593  0.4091
  359DOPC  H10X49517   1.146   8.486   3.014  0.9099  1.1101 -0.4362
  359DOPC  C31149518   1.224   8.278   3.011  0.5365  0.0975  0.2656
  359DOPC  H11X49519   1.327   8.236   3.019  0.4071 -0.2040  0.3523
  359DOPC  H11Y49520   1.178   8.223   2.926  1.0131  0.8316 -0.4852
  359DOPC  C31249521   1.139   8.251   3.137  0.5067  0.3576  0.3187
  359DOPC  H12X49522   1.141   8.140   3.150 -0.4271  0.4624  1.6154
  359DOPC  H12Y49523   1.032   8.278   3.128  0.5231  0.0282 -0.9896
  359DOPC  C31349524   1.201   8.314   3.259 -0.1737  0.2320  0.2788
  359DOPC  H13X49525   1.310   8.294   3.249 -0.0002  0.8546  0.8351
  359DOPC  H13Y49526   1.187   8.424   3.255 -0.6839  0.1316 -0.7990
  359DOPC  C31449527   1.148   8.248   3.388 -0.0304  0.6910  0.0341
  359DOPC  H14X49528   1.164   8.138   3.389 -0.1465  0.6744  1.5598
  359DOPC  H14Y49529   1.203   8.290   3.475 -0.5098 -0.4936  0.9304
  359DOPC  C31549530   0.996   8.268   3.394 -0.1415 -0.0509 -0.1335
  359DOPC  H15X49531   0.944   8.204   3.320  0.7665  0.2795 -1.0899
  359DOPC  H15Y49532   0.970   8.374   3.373 -0.0950 -0.2954 -1.5198
  359DOPC  C31649533   0.941   8.230   3.530 -0.3473  0.2099  0.2525
  359DOPC  H16X49534   1.009   8.266   3.611 -1.3980 -3.3496  3.0072
  359DOPC  H16Y49535   0.845   8.283   3.543  0.1813  1.6354 -1.3618
  359DOPC  C31749536   0.928   8.076   3.547  0.0065 -0.3129 -0.9255
  359DOPC  H17X49537   0.875   8.033   3.459  1.0076  0.0096 -1.7109
  359DOPC  H17Y49538   1.028   8.029   3.555 -0.2780 -0.6571  1.0388
  359DOPC  C31849539   0.838   8.039   3.675 -0.1530  0.5353  0.0388
  359DOPC  H18X49540   0.883   8.102   3.755 -0.9861 -0.2729  1.1715
  359DOPC  H18Y49541   0.734   8.072   3.653  0.2064  0.0604 -2.8013
  359DOPC  H18Z49542   0.846   7.932   3.701 -1.2291  0.0718 -1.4149
  360DOPC     N49543   9.974   4.142   1.847 -0.3800  0.5408  0.5242
  360DOPC   C1249544   9.978   4.238   1.962  0.2361  0.1605 -0.8897
  360DOPC  H12A49545   9.989   4.341   1.933 -0.9720  0.5414 -0.0711
  360DOPC  H12B49546  10.067   4.212   2.018  0.7355 -1.9896 -2.5479
  360DOPC   C1349547  10.104   4.133   1.777 -0.1008 -0.0369 -0.2880
  360DOPC  H13A49548  10.190   4.095   1.830  0.5204  1.7625  0.0445
  360DOPC  H13B49549  10.086   4.062   1.697 -2.7735 -0.4316  0.5673
  360DOPC  H13C49550  10.143   4.224   1.735 -0.3806 -1.1883 -3.3309
  360DOPC   C1449551   9.877   4.178   1.746 -0.4593 -0.1400  0.4427
  360DOPC  H14A49552   9.788   4.207   1.799  1.1041  3.1630  1.5424
  360DOPC  H14B49553   9.890   4.274   1.698  1.3007  1.1477  3.2510
  360DOPC  H14C49554   9.861   4.102   1.671  0.4705 -0.9454  1.0340
  360DOPC   C1549555   9.958   3.997   1.898 -0.2138  0.1618 -0.1013
  360DOPC  H15A49556   9.969   3.935   1.810 -0.2107  1.4917 -1.0736
  360DOPC  H15B49557   9.865   3.975   1.949 -0.4865 -1.2059 -1.1349
  360DOPC  H15C49558  10.032   3.955   1.964 -2.3278 -1.3930  1.4026
  360DOPC   C1149559   9.857   4.227   2.060 -0.0924  0.2521  0.5269
  360DOPC  H11A49560   9.860   4.122   2.096  3.5092  0.0263 -0.0409
  360DOPC  H11B49561   9.877   4.290   2.149  2.9591 -0.2254  0.3161
  360DOPC     P49562   9.598   4.217   2.032  0.2600  0.2387 -0.0851
  360DOPC   O1349563   9.573   4.085   1.971  0.0382 -0.4711 -0.4710
  360DOPC   O1449564   9.492   4.320   2.014 -0.0496  0.5630  0.1934
  360DOPC   O1249565   9.740   4.267   1.997  0.0964 -0.1950  0.6160
  360DOPC   O1149566   9.593   4.195   2.192  0.4503  0.0325 -0.3560
  360DOPC    C149567   9.586   4.304   2.282  0.2069 -0.3552 -0.1823
  360DOPC    HA49568   9.571   4.398   2.226  1.1830 -0.1548 -0.1239
  360DOPC    HB49569   9.678   4.312   2.343  0.2145 -0.6818 -0.1449
  360DOPC    C249570   9.465   4.289   2.382  0.4394 -0.7308  0.8217
  360DOPC    HS49571   9.453   4.380   2.444 -0.1452 -1.6152  2.0463
  360DOPC   O2149572   9.497   4.177   2.467 -0.7699 -0.4626 -0.1656
  360DOPC   C2149573   9.601   4.178   2.554 -0.8702 -0.3416  0.5253
  360DOPC   O2249574   9.677   4.270   2.576  0.6174  0.3203 -0.1657
  360DOPC   C2249575   9.600   4.032   2.603  0.3902 -0.1490  0.6015
  360DOPC   H2R49576   9.633   3.977   2.513 -1.0203  1.1874 -0.7954
  360DOPC   H2S49577   9.491   4.024   2.624  0.3264  0.8220  0.6797
  360DOPC    C349578   9.337   4.263   2.298  0.1645  0.5591 -0.2197
  360DOPC    HX49579   9.348   4.175   2.231  2.5974 -0.8369  1.8675
  360DOPC    HY49580   9.329   4.354   2.234  0.9666  0.8270  0.0458
  360DOPC   O3149581   9.218   4.260   2.385  0.0649 -0.3138  0.1469
  360DOPC   C3149582   9.190   4.139   2.438 -0.0844 -0.6448 -0.1603
  360DOPC   O3249583   9.234   4.040   2.394 -0.0716 -0.0426  0.2429
  360DOPC   C3249584   9.103   4.158   2.557  0.0584 -0.2911  0.2873
  360DOPC   H2X49585   9.068   4.264   2.559  1.7127  0.2742  1.7589
  360DOPC   H2Y49586   9.016   4.089   2.557 -0.4579  0.3435 -0.3382
  360DOPC   C2349587   9.682   3.998   2.726  0.5351 -0.5597  0.0171
  360DOPC   H3R49588   9.670   4.087   2.792 -2.0350  0.5784 -1.8438
  360DOPC   H3S49589   9.790   3.992   2.704  0.2440  0.7161 -1.9829
  360DOPC   C2449590   9.646   3.867   2.797  0.2867 -0.6744 -0.3629
  360DOPC   H4R49591   9.696   3.879   2.896  1.3716  0.0475 -0.9655
  360DOPC   H4S49592   9.689   3.777   2.747  1.7563  0.5386 -1.4041
  360DOPC   C2549593   9.489   3.855   2.836  0.7586 -0.1729  0.6938
  360DOPC   H5R49594   9.431   3.854   2.741  3.1672  2.0367 -0.9536
  360DOPC   H5S49595   9.455   3.956   2.869 -1.0592  1.0757 -4.0194
  360DOPC   C2649596   9.458   3.737   2.934  0.0897  0.4228  0.6993
  360DOPC   H6R49597   9.515   3.748   3.028  3.1859  0.0107 -0.9704
  360DOPC   H6S49598   9.495   3.642   2.888 -3.0875 -0.3124 -0.5859
  360DOPC   C2749599   9.310   3.709   2.953  0.2582 -0.2621 -0.1355
  360DOPC   H7R49600   9.269   3.656   2.864  1.6868 -1.3647 -0.1705
  360DOPC   H7S49601   9.265   3.810   2.958 -0.3565 -0.4330 -1.5929
  360DOPC   C2849602   9.273   3.615   3.068  0.1718  0.6041 -0.2562
  360DOPC   H8R49603   9.339   3.648   3.151  2.0098 -0.1391 -1.3657
  360DOPC   H8S49604   9.291   3.509   3.041  0.7073  0.4926  0.5032
  360DOPC   C2949605   9.126   3.624   3.104 -0.0211  0.1917  0.6810
  360DOPC   H9R49606   9.077   3.528   3.083  1.8354 -0.2800 -1.9908
  360DOPC  C21049607   9.062   3.723   3.158  0.0342 -0.7037  0.2486
  360DOPC  H10R49608   8.957   3.694   3.174  1.0065 -4.3813  0.8744
  360DOPC  C21149609   9.119   3.858   3.205  0.3160  0.0369 -0.0572
  360DOPC  H11R49610   9.082   3.948   3.152 -1.7752 -0.4727  0.4406
  360DOPC  H11S49611   9.229   3.867   3.190  0.2192  0.0855 -0.7614
  360DOPC  C21249612   9.104   3.870   3.357  0.3750 -0.2532 -0.3816
  360DOPC  H12R49613   8.999   3.861   3.394 -0.0857  0.2622 -1.5117
  360DOPC  H12S49614   9.129   3.974   3.384 -0.2843  0.0331 -0.8390
  360DOPC  C21349615   9.173   3.774   3.454 -0.1897  0.2038  0.3643
  360DOPC  H13R49616   9.283   3.786   3.443 -0.0465 -1.6485 -0.4073
  360DOPC  H13S49617   9.148   3.670   3.427 -0.9937  0.8769 -1.6582
  360DOPC  C21449618   9.118   3.779   3.597 -0.3770 -0.7600 -0.1354
  360DOPC  H14R49619   9.007   3.771   3.594 -0.5113  0.8057 -0.4339
  360DOPC  H14S49620   9.150   3.877   3.639 -0.9603 -0.2722 -0.7969
  360DOPC  C21549621   9.176   3.665   3.684  0.0414 -0.3542 -0.1753
  360DOPC  H15R49622   9.287   3.670   3.678  0.2079 -0.2130  2.0340
  360DOPC  H15S49623   9.146   3.570   3.635 -0.9402  0.5357 -1.3560
  360DOPC  C21649624   9.131   3.688   3.828  0.8161 -0.1046 -0.9490
  360DOPC  H16R49625   9.130   3.592   3.885 -1.5508  0.0974 -0.5572
  360DOPC  H16S49626   9.022   3.707   3.835  0.8099  0.1886 -1.7467
  360DOPC  C21749627   9.202   3.801   3.893 -0.7825 -0.0516 -0.3480
  360DOPC  H17R49628   9.180   3.901   3.851  0.3862  1.1351  1.7000
  360DOPC  H17S49629   9.313   3.792   3.887 -0.7785 -3.4996  1.7030
  360DOPC  C21849630   9.167   3.823   4.048  0.5711 -0.0060  0.2161
  360DOPC  H18R49631   9.150   3.726   4.100  1.1067  0.0737  0.5412
  360DOPC  H18S49632   9.072   3.878   4.064 -0.0640 -1.1709  0.5842
  360DOPC  H18T49633   9.241   3.881   4.107  0.2374 -0.8873  1.5627
  360DOPC   C3349634   9.181   4.144   2.694  0.2218  0.7526 -0.5056
  360DOPC   H3X49635   9.273   4.207   2.692  1.0749 -0.4453 -0.7907
  360DOPC   H3Y49636   9.213   4.037   2.697  0.6358  0.8793 -0.2862
  360DOPC   C3449637   9.104   4.191   2.816 -0.3945  0.9884  0.8175
  360DOPC   H4X49638   8.994   4.181   2.804 -0.2173  0.9221 -1.0529
  360DOPC   H4Y49639   9.124   4.299   2.831  0.6978  0.8875  0.1765
  360DOPC   C3549640   9.158   4.121   2.942 -0.8374  0.1011  0.1678
  360DOPC   H5X49641   9.269   4.112   2.943 -0.7803  0.7442 -0.0526
  360DOPC   H5Y49642   9.110   4.023   2.965 -1.1659  0.7012  2.1766
  360DOPC   C3649643   9.125   4.209   3.057 -0.3152 -0.6384 -0.6111
  360DOPC   H6X49644   9.184   4.165   3.140 -0.8104 -0.6700 -0.2666
  360DOPC   H6Y49645   9.157   4.312   3.032  0.4504 -0.9973 -1.1309
  360DOPC   C3749646   8.977   4.200   3.103 -0.4072 -0.0999  0.2626
  360DOPC   H7X49647   8.911   4.192   3.014 -0.4372 -3.1167  0.4502
  360DOPC   H7Y49648   8.958   4.105   3.159 -1.3898 -0.1799 -0.1798
  360DOPC   C3849649   8.939   4.308   3.201  0.4052 -1.0779 -0.2272
  360DOPC   H8X49650   8.832   4.301   3.229 -0.2791  0.5367 -2.2350
  360DOPC   H8Y49651   8.967   4.405   3.154  2.6142  0.1565  3.1637
  360DOPC   C3949652   9.024   4.308   3.325  0.1099  0.4526  0.3493
  360DOPC   H9X49653   9.132   4.314   3.304  0.1649  2.3749  1.0014
  360DOPC  C31049654   8.987   4.267   3.448 -1.0303  0.3051  0.4790
  360DOPC  H10X49655   9.062   4.264   3.528 -1.4857  0.9449  0.9420
  360DOPC  C31149656   8.851   4.233   3.503  0.4098  0.0695  0.5483
  360DOPC  H11X49657   8.775   4.209   3.425  0.6588 -0.1767  0.3829
  360DOPC  H11Y49658   8.803   4.316   3.561  1.0579  1.6233 -1.0687
  360DOPC  C31249659   8.843   4.100   3.589  0.4888  0.1579  0.7638
  360DOPC  H12X49660   8.924   4.087   3.665  0.1259 -0.4822  1.0514
  360DOPC  H12Y49661   8.857   4.022   3.511  0.6321  0.1747  0.7716
  360DOPC  C31349662   8.706   4.080   3.655 -0.5964 -0.1218 -1.1370
  360DOPC  H13X49663   8.690   4.132   3.752  2.0653 -0.5218 -0.4116
  360DOPC  H13Y49664   8.621   4.111   3.590 -1.9446 -0.8114  0.2312
  360DOPC  C31449665   8.675   3.930   3.680 -0.4896  0.3555 -0.2357
  360DOPC  H14X49666   8.570   3.899   3.696  0.0131 -0.3936  1.9927
  360DOPC  H14Y49667   8.705   3.870   3.592 -1.4016 -0.1315 -0.2239
  360DOPC  C31549668   8.758   3.863   3.792 -0.0139 -0.1978 -0.3149
  360DOPC  H15X49669   8.855   3.916   3.798  0.2099 -0.6990  0.6095
  360DOPC  H15Y49670   8.768   3.760   3.753 -0.7934 -0.6434  0.6219
  360DOPC  C31649671   8.686   3.858   3.931 -0.2664 -0.8896  0.3386
  360DOPC  H16X49672   8.644   3.961   3.940 -1.4027 -1.2215 -0.8693
  360DOPC  H16Y49673   8.595   3.793   3.927 -0.6996 -0.2440 -0.7269
  360DOPC  C31749674   8.779   3.837   4.049  0.2156 -0.7609 -0.0081
  360DOPC  H17X49675   8.839   3.744   4.037  0.0159 -0.8205 -0.5990
  360DOPC  H17Y49676   8.853   3.919   4.049 -0.7211  0.1028  0.1996
  360DOPC  C31849677   8.694   3.828   4.178 -0.3706  0.1313  0.7430
  360DOPC  H18X49678   8.753   3.843   4.271  1.0497  4.9632 -0.6516
  360DOPC  H18Y49679   8.612   3.903   4.186 -0.9552 -0.3583 -0.4304
  360DOPC  H18Z49680   8.646   3.730   4.157  0.6279 -0.3362  0.6168
  361DOPC     N49681  10.114  11.393   1.494 -0.0395  0.1118 -0.6113
  361DOPC   C1249682  10.115  11.474   1.621  0.4865 -0.5786 -0.3170
  361DOPC  H12A49683  10.215  11.489   1.660 -0.7285 -0.0260  2.8175
  361DOPC  H12B49684  10.068  11.416   1.699 -1.1035 -1.2792 -1.7241
  361DOPC   C1349685   9.970  11.367   1.454 -0.2925 -0.0309 -0.3891
  361DOPC  H13A49686   9.923  11.297   1.521 -1.1268 -0.5279 -1.4601
  361DOPC  H13B49687   9.923  11.462   1.433  0.6600  0.5283 -0.0498
  361DOPC  H13C49688   9.969  11.317   1.358  3.5314  0.2365 -0.7464
  361DOPC   C1449689  10.189  11.266   1.517  0.0917  0.1214  0.1529
  361DOPC  H14A49690  10.137  11.192   1.576  0.3080 -0.1918 -0.0457
  361DOPC  H14B49691  10.210  11.218   1.422 -1.9465  0.0937 -0.3208
  361DOPC  H14C49692  10.283  11.287   1.565  0.5625 -2.6367  0.5990
  361DOPC   C1549693  10.187  11.480   1.389 -0.2524  0.4870 -0.4688
  361DOPC  H15A49694  10.295  11.480   1.388 -0.2446  1.5113 -0.5665
  361DOPC  H15B49695  10.160  11.582   1.411 -2.1856 -0.0846 -0.0393
  361DOPC  H15C49696  10.158  11.446   1.291  0.0042 -3.7471  0.6978
  361DOPC   C1149697  10.037  11.606   1.619  0.0699 -0.7434 -0.3258
  361DOPC  H11A49698   9.939  11.590   1.570 -1.0370 -3.6994  2.5208
  361DOPC  H11B49699  10.009  11.636   1.722 -0.8057 -0.1238 -0.7335
  361DOPC     P49700  10.064  11.855   1.533 -0.3187 -0.0482  0.1239
  361DOPC   O1349701   9.963  11.852   1.426 -0.3415 -0.0726 -0.6858
  361DOPC   O1449702  10.176  11.950   1.510  0.2909 -0.8598 -0.5160
  361DOPC   O1249703  10.119  11.706   1.559  0.1948 -0.1035  0.0442
  361DOPC   O1149704   9.991  11.898   1.671 -0.2415 -0.0465  0.3096
  361DOPC    C149705  10.064  11.987   1.753  0.4260  0.6675 -0.5081
  361DOPC    HA49706  10.044  12.093   1.725  2.3015  1.2020  0.0629
  361DOPC    HB49707  10.174  11.977   1.748  0.3878 -0.2583  0.2262
  361DOPC    C249708  10.022  11.974   1.902 -0.3586 -1.0865 -0.0488
  361DOPC    HS49709   9.913  11.991   1.918 -0.1986 -0.3069  0.2616
  361DOPC   O2149710  10.107  12.077   1.960  0.4612  0.4700  0.3651
  361DOPC   C2149711  10.036  12.164   2.041 -0.6499 -0.4595 -0.0994
  361DOPC   O2249712   9.922  12.147   2.073  0.4247  0.1009 -0.5490
  361DOPC   C2249713  10.112  12.293   2.067 -0.0090  0.1810 -0.5783
  361DOPC   H2R49714  10.043  12.357   2.127  1.0469 -0.3614  1.2938
  361DOPC   H2S49715  10.120  12.347   1.970 -1.4273  0.9094 -0.3176
  361DOPC    C349716  10.052  11.837   1.963  0.3616 -0.0248  0.1629
  361DOPC    HX49717  10.163  11.827   1.963  0.1993 -2.8493 -1.0634
  361DOPC    HY49718  10.026  11.748   1.902  1.3200 -1.4694  1.7719
  361DOPC   O3149719   9.998  11.823   2.094  0.4725  0.1633  0.4989
  361DOPC   C3149720   9.865  11.810   2.104 -0.0849 -0.2633  0.0064
  361DOPC   O3249721   9.787  11.817   2.010 -0.1065  0.1315 -0.6203
  361DOPC   C3249722   9.819  11.815   2.247  0.1882  0.3889 -0.0625
  361DOPC   H2X49723   9.896  11.798   2.326  0.2265 -1.4774 -0.4488
  361DOPC   H2Y49724   9.778  11.916   2.267  1.0593  1.0533 -1.5054
  361DOPC   C2349725  10.246  12.280   2.141  0.7380  0.5406  0.3412
  361DOPC   H3R49726  10.289  12.382   2.143  1.6991  0.1346  1.6736
  361DOPC   H3S49727  10.297  12.211   2.070 -2.5507 -2.0302  0.1955
  361DOPC   C2449728  10.231  12.219   2.278 -0.0581 -0.9488 -0.3428
  361DOPC   H4R49729  10.333  12.182   2.305 -0.0871 -2.0334 -1.6144
  361DOPC   H4S49730  10.169  12.128   2.262  0.2371 -1.3816  0.8542
  361DOPC   C2549731  10.165  12.306   2.387  1.1469  0.1442 -0.2458
  361DOPC   H5R49732  10.056  12.316   2.367  0.5539 -1.3746  1.8834
  361DOPC   H5S49733  10.209  12.405   2.364  1.3463 -0.1346 -1.0998
  361DOPC   C2649734  10.188  12.256   2.526  0.4990 -0.8287  0.8562
  361DOPC   H6R49735  10.131  12.322   2.596  0.7824  1.7049 -1.1444
  361DOPC   H6S49736  10.291  12.269   2.566 -0.0690  0.8815  1.8811
  361DOPC   C2749737  10.134  12.114   2.553 -0.7220 -0.1205  0.2656
  361DOPC   H7R49738  10.150  12.101   2.662  2.6017 -0.9035 -0.1955
  361DOPC   H7S49739  10.212  12.050   2.506 -0.3991 -1.3141  2.3254
  361DOPC   C2849740   9.992  12.085   2.504  0.2610  0.1894  0.2874
  361DOPC   H8R49741   9.989  11.974   2.513  1.0801  0.1216 -0.1141
  361DOPC   H8S49742   9.970  12.113   2.399 -0.4831 -0.4944  0.2534
  361DOPC   C2949743   9.896  12.141   2.602 -0.3004 -0.0240  0.1909
  361DOPC   H9R49744   9.903  12.251   2.607 -0.6661  0.0614 -0.9416
  361DOPC  C21049745   9.816  12.071   2.687  0.3427  0.1866 -0.7279
  361DOPC  H10R49746   9.756  12.133   2.757  0.5825 -1.8476  1.3799
  361DOPC  C21149747   9.802  11.922   2.708  0.8087  0.1341  0.1395
  361DOPC  H11R49748   9.802  11.869   2.611 -0.5417 -1.5389  1.0146
  361DOPC  H11S49749   9.703  11.897   2.751  0.5909 -1.0968 -1.0299
  361DOPC  C21249750   9.918  11.866   2.797  0.7133  0.1223 -0.0318
  361DOPC  H12R49751  10.015  11.907   2.763  0.7857 -1.7585 -2.3362
  361DOPC  H12S49752   9.931  11.757   2.782 -0.1001 -0.1003  0.8104
  361DOPC  C21349753   9.893  11.901   2.943  0.4418 -0.0810 -0.5797
  361DOPC  H13R49754   9.818  11.833   2.990  0.5479  0.0476 -0.2194
  361DOPC  H13S49755   9.855  12.003   2.967 -1.7832 -1.3588  1.7743
  361DOPC  C21449756  10.034  11.904   3.001 -0.2025 -0.2210 -1.2766
  361DOPC  H14R49757  10.096  11.965   2.932  0.6773 -1.3834 -1.5471
  361DOPC  H14S49758  10.079  11.803   3.002 -2.2800 -1.2029 -1.1054
  361DOPC  C21549759  10.050  11.979   3.137  0.1895  0.2181 -0.0195
  361DOPC  H15R49760  10.035  12.088   3.121 -0.5038 -0.1489 -2.2622
  361DOPC  H15S49761  10.150  11.955   3.180  0.6118  0.2172 -0.9724
  361DOPC  C21649762   9.959  11.943   3.257 -0.2420 -0.4492  0.4841
  361DOPC  H16R49763   9.990  11.851   3.311 -0.6807 -0.1957  1.1834
  361DOPC  H16S49764   9.857  11.925   3.216  0.1003 -0.4134 -0.4135
  361DOPC  C21749765   9.939  12.061   3.356  0.2172  0.0954 -0.2782
  361DOPC  H17R49766   9.923  12.162   3.312  2.7073  0.6488 -0.0633
  361DOPC  H17S49767  10.038  12.065   3.407 -0.1959 -1.7373  0.7456
  361DOPC  C21849768   9.834  12.020   3.464 -0.3896  0.2870  0.3905
  361DOPC  H18R49769   9.834  12.095   3.546  0.6885  1.0239 -0.2525
  361DOPC  H18S49770   9.864  11.922   3.508 -0.8854 -0.1446 -0.2101
  361DOPC  H18T49771   9.736  12.012   3.412 -0.0240 -0.8478 -0.1544
  361DOPC   C3349772   9.700  11.709   2.279 -0.5381  0.2259 -0.4506
  361DOPC   H3X49773   9.730  11.603   2.268 -2.3395 -0.1155 -2.8320
  361DOPC   H3Y49774   9.625  11.725   2.199  0.4775  1.2892 -1.2219
  361DOPC   C3449775   9.638  11.739   2.419  0.1087 -0.1469  0.7703
  361DOPC   H4X49776   9.607  11.845   2.411 -0.3102 -0.4107 -1.8219
  361DOPC   H4Y49777   9.709  11.716   2.502  0.3379  1.9452  1.2125
  361DOPC   C3549778   9.520  11.648   2.442 -0.1793 -0.5368 -0.3542
  361DOPC   H5X49779   9.551  11.557   2.497 -3.9065 -0.2019  2.6633
  361DOPC   H5Y49780   9.467  11.609   2.353  0.2494 -2.1337  0.0641
  361DOPC   C3649781   9.424  11.720   2.526 -0.0726 -0.2262 -0.1778
  361DOPC   H6X49782   9.380  11.811   2.481  2.0650  2.1639  2.2492
  361DOPC   H6Y49783   9.337  11.650   2.524 -0.6631  0.5141 -1.2183
  361DOPC   C3749784   9.466  11.757   2.669 -0.1162  0.1120  0.4110
  361DOPC   H7X49785   9.564  11.710   2.692 -0.3142  0.2391  1.5488
  361DOPC   H7Y49786   9.486  11.866   2.662 -0.4442  0.1528  0.0696
  361DOPC   C3849787   9.357  11.733   2.776  0.5311 -0.4157  0.2334
  361DOPC   H8X49788   9.392  11.763   2.877  1.0353 -1.8801  0.5025
  361DOPC   H8Y49789   9.323  11.628   2.776  1.3239 -0.7348 -2.4079
  361DOPC   C3949790   9.238  11.821   2.754  0.0676  0.5805  0.0842
  361DOPC   H9X49791   9.247  11.924   2.717 -1.5993  1.0684  0.8887
  361DOPC  C31049792   9.112  11.781   2.790  0.5420 -0.0872 -0.4139
  361DOPC  H10X49793   9.026  11.841   2.758  0.3855  0.6545  1.3029
  361DOPC  C31149794   9.060  11.659   2.857  0.4335 -0.2579 -0.6131
  361DOPC  H11X49795   9.091  11.567   2.803  0.7235 -1.4581  1.5000
  361DOPC  H11Y49796   8.951  11.662   2.877  0.1454 -0.8243 -1.9495
  361DOPC  C31249797   9.120  11.644   3.000  0.7259 -0.1035 -0.7949
  361DOPC  H12X49798   9.231  11.649   3.003  0.7195 -0.2982  1.6455
  361DOPC  H12Y49799   9.094  11.545   3.043  0.5363 -0.3945 -1.5525
  361DOPC  C31349800   9.070  11.754   3.102  0.0728  0.5409 -0.7350
  361DOPC  H13X49801   9.124  11.849   3.087  0.0906  0.2205 -2.9837
  361DOPC  H13Y49802   8.967  11.788   3.081  0.4650  1.5599 -1.0411
  361DOPC  C31449803   9.068  11.723   3.255 -0.1219 -0.2878  0.2722
  361DOPC  H14X49804   9.022  11.621   3.259  1.9252 -1.2428  0.9487
  361DOPC  H14Y49805   9.171  11.716   3.294  0.2417 -2.5772 -0.9141
  361DOPC  C31549806   8.986  11.825   3.336 -0.4254 -0.0045  0.3292
  361DOPC  H15X49807   8.889  11.856   3.291 -0.2685  0.2023  0.1305
  361DOPC  H15Y49808   9.054  11.914   3.336  1.0528 -1.0864 -0.5312
  361DOPC  C31649809   8.964  11.789   3.489  0.3959 -0.0997 -0.3187
  361DOPC  H16X49810   8.916  11.689   3.499 -0.9305  0.3613 -1.5674
  361DOPC  H16Y49811   9.060  11.788   3.543 -0.0903  2.5332  0.7270
  361DOPC  C31749812   8.895  11.901   3.567  0.2651  0.2940  0.1811
  361DOPC  H17X49813   8.939  12.002   3.554  0.9056  0.1217  0.8761
  361DOPC  H17Y49814   8.793  11.904   3.523 -0.6314 -1.3694  1.9588
  361DOPC  C31849815   8.873  11.892   3.721 -0.3281  0.5897 -0.0621
  361DOPC  H18X49816   8.816  11.984   3.746 -0.5058  0.6598 -0.7107
  361DOPC  H18Y49817   8.822  11.799   3.755 -1.6443  1.6182  0.8744
  361DOPC  H18Z49818   8.980  11.901   3.750 -0.1251 -0.3512 -0.4687
  362DOPC     N49819   3.070   2.248   1.815 -0.0566  0.7787  0.3479
  362DOPC   C1249820   3.075   2.322   1.946  0.5501 -0.1582 -0.5145
  362DOPC  H12A49821   2.983   2.380   1.942 -0.0628 -1.0573  0.2196
  362DOPC  H12B49822   3.162   2.384   1.957  1.1511 -1.2673  1.3232
  362DOPC   C1349823   3.064   2.355   1.707  0.4211  0.1733  0.5378
  362DOPC  H13A49824   2.978   2.420   1.716  0.0915 -0.1320 -0.3128
  362DOPC  H13B49825   3.151   2.418   1.710  0.5664  0.2285 -2.1182
  362DOPC  H13C49826   3.071   2.310   1.609  2.8543  1.0137  0.2539
  362DOPC   C1449827   2.952   2.163   1.808  0.5578 -0.6752  0.7121
  362DOPC  H14A49828   2.942   2.107   1.717 -2.0799 -0.4448  0.7659
  362DOPC  H14B49829   2.946   2.106   1.899  2.1053 -1.1745  0.5241
  362DOPC  H14C49830   2.862   2.224   1.805  1.5922  0.9907  1.6250
  362DOPC   C1549831   3.193   2.160   1.795  0.3115  0.1060  0.3431
  362DOPC  H15A49832   3.275   2.230   1.800 -2.0050  2.9094  3.1254
  362DOPC  H15B49833   3.184   2.116   1.697  1.7005 -1.1141  0.7284
  362DOPC  H15C49834   3.187   2.089   1.876  1.1181  0.6716  0.9151
  362DOPC   C1149835   3.078   2.247   2.088  0.4418  0.7020 -0.0759
  362DOPC  H11A49836   3.164   2.177   2.090 -0.2353 -0.1163  0.9118
  362DOPC  H11B49837   3.105   2.321   2.166  0.1870  0.6031  0.1076
  362DOPC     P49838   2.842   2.209   2.201  0.1126 -0.1440 -0.2662
  362DOPC   O1349839   2.769   2.088   2.248  0.5645 -0.3692 -0.0851
  362DOPC   O1449840   2.768   2.321   2.129  0.0564  0.6732 -0.0217
  362DOPC   O1249841   2.958   2.168   2.109  0.3571 -0.3276 -0.1616
  362DOPC   O1149842   2.921   2.269   2.326 -0.1850 -0.1360 -0.2212
  362DOPC    C149843   2.899   2.408   2.359 -0.2365  0.1610 -0.2277
  362DOPC    HA49844   2.807   2.429   2.417  1.9392 -0.4483  3.8788
  362DOPC    HB49845   2.898   2.475   2.271  3.1487  0.9061  0.1505
  362DOPC    C249846   3.013   2.471   2.452  0.0896  0.4176 -0.2915
  362DOPC    HS49847   3.107   2.431   2.408  0.7634  0.4337  1.0949
  362DOPC   O2149848   3.003   2.417   2.582 -0.1643  0.3430 -0.4582
  362DOPC   C2149849   3.116   2.401   2.655 -0.4632  0.5624 -0.4980
  362DOPC   O2249850   3.229   2.421   2.612  0.0188 -0.4560 -0.0542
  362DOPC   C2249851   3.080   2.333   2.789 -0.9725 -0.9218 -0.2595
  362DOPC   H2R49852   2.991   2.267   2.777 -2.5451  1.3291 -1.5386
  362DOPC   H2S49853   3.049   2.423   2.845  1.6618 -0.6429  0.9063
  362DOPC    C349854   3.005   2.630   2.462 -0.4907  0.2436 -0.5396
  362DOPC    HX49855   2.903   2.662   2.491 -0.2088  0.8808 -0.2332
  362DOPC    HY49856   3.023   2.657   2.355  0.2980 -1.3122 -0.8272
  362DOPC   O3149857   3.099   2.682   2.560  0.5251 -0.1016  0.0007
  362DOPC   C3149858   3.208   2.736   2.506  1.0197  0.1545  0.3854
  362DOPC   O3249859   3.229   2.762   2.385  0.2831  0.0830 -0.5119
  362DOPC   C3249860   3.313   2.744   2.607 -0.6935  0.3489  0.4562
  362DOPC   H2X49861   3.285   2.696   2.704  2.2740 -1.6576  0.4592
  362DOPC   H2Y49862   3.393   2.675   2.572 -0.6699  0.9014 -0.6058
  362DOPC   C2349863   3.197   2.250   2.837  0.4830  0.6095 -0.2167
  362DOPC   H3R49864   3.296   2.297   2.858  1.0964 -0.4476 -0.6430
  362DOPC   H3S49865   3.217   2.175   2.758  3.3677  0.3410  0.6317
  362DOPC   C2449866   3.165   2.162   2.960  0.4389 -0.1981  0.7874
  362DOPC   H4R49867   3.261   2.114   2.987  1.2223  2.0359  2.3178
  362DOPC   H4S49868   3.087   2.088   2.934  1.1182 -0.5164 -0.3856
  362DOPC   C2549869   3.119   2.245   3.078  0.5507 -0.3061  0.3233
  362DOPC   H5R49870   3.109   2.172   3.161  0.8726 -1.9696 -1.0468
  362DOPC   H5S49871   3.022   2.293   3.056 -0.7642 -2.8491  0.1776
  362DOPC   C2649872   3.228   2.345   3.123 -0.3522 -0.2655  0.6051
  362DOPC   H6R49873   3.256   2.411   3.038  2.1375 -0.8031  0.9241
  362DOPC   H6S49874   3.314   2.278   3.144 -2.4770 -2.4407  3.0892
  362DOPC   C2749875   3.193   2.417   3.247  0.8190 -0.4248  0.1465
  362DOPC   H7R49876   3.155   2.345   3.322 -0.4339 -0.7882 -0.8060
  362DOPC   H7S49877   3.119   2.498   3.235  0.2155 -0.7275  1.6157
  362DOPC   C2849878   3.321   2.482   3.314  0.6658 -0.6150  0.2292
  362DOPC   H8R49879   3.384   2.520   3.231 -0.1733 -0.4714 -0.3495
  362DOPC   H8S49880   3.373   2.393   3.356  2.0394  0.0088 -0.0693
  362DOPC   C2949881   3.282   2.588   3.414 -0.1575  0.1474 -1.0316
  362DOPC   H9R49882   3.234   2.678   3.371 -0.1050  1.5304  1.6007
  362DOPC  C21049883   3.328   2.597   3.538 -0.0340  0.0003  0.7441
  362DOPC  H10R49884   3.297   2.683   3.600  1.9007 -0.6797  2.7731
  362DOPC  C21149885   3.422   2.503   3.611 -0.0201 -0.8254  0.1341
  362DOPC  H11R49886   3.517   2.485   3.556 -0.0905 -1.6113  0.2637
  362DOPC  H11S49887   3.383   2.400   3.609  1.4512 -1.4283  0.8204
  362DOPC  C21249888   3.447   2.540   3.761  0.4478 -0.1786  0.4084
  362DOPC  H12R49889   3.355   2.575   3.811 -1.0177 -2.5384 -0.4346
  362DOPC  H12S49890   3.515   2.627   3.757 -2.1681  1.9627 -0.0224
  362DOPC  C21349891   3.509   2.424   3.840  0.4845  0.1448  0.2136
  362DOPC  H13R49892   3.588   2.361   3.793  0.6855 -0.5208  1.4191
  362DOPC  H13S49893   3.430   2.354   3.876  0.6869 -0.2009 -0.0036
  362DOPC  C21449894   3.583   2.479   3.963  0.3351 -0.0477  0.2740
  362DOPC  H14R49895   3.516   2.551   4.015  0.8999  2.3799 -2.1323
  362DOPC  H14S49896   3.666   2.543   3.927  0.7922 -0.2209  0.9949
  362DOPC  C21549897   3.627   2.376   4.068 -0.0755  0.0706  0.1628
  362DOPC  H15R49898   3.721   2.329   4.031 -0.1665  0.8941 -1.1935
  362DOPC  H15S49899   3.556   2.294   4.090  2.4222 -1.8704  1.4140
  362DOPC  C21649900   3.673   2.429   4.207 -0.4029 -0.3870 -0.4443
  362DOPC  H16R49901   3.588   2.478   4.258 -0.2242  0.9415 -1.3674
  362DOPC  H16S49902   3.752   2.507   4.197 -0.9830  0.1759 -0.6979
  362DOPC  C21749903   3.730   2.308   4.290  0.0496 -0.5650 -0.0783
  362DOPC  H17R49904   3.825   2.269   4.248  1.5945  0.8515  1.9136
  362DOPC  H17S49905   3.661   2.221   4.285 -0.9894  0.0771  2.0303
  362DOPC  C21849906   3.747   2.340   4.438  0.3137 -0.2512 -1.0389
  362DOPC  H18R49907   3.666   2.406   4.478 -0.2675 -0.4779 -1.8222
  362DOPC  H18S49908   3.838   2.400   4.459  0.2162 -0.6712  0.8062
  362DOPC  H18T49909   3.756   2.245   4.495 -0.3993  0.5682  0.5020
  362DOPC   C3349910   3.359   2.893   2.632 -0.4547  0.0101 -0.2664
  362DOPC   H3X49911   3.278   2.949   2.683 -1.5850 -2.7208  1.1730
  362DOPC   H3Y49912   3.387   2.943   2.537 -1.3204  1.8675  0.4015
  362DOPC   C3449913   3.494   2.886   2.712 -0.5053 -0.2099  0.3702
  362DOPC   H4X49914   3.558   2.825   2.644 -1.1186 -0.2122 -0.2291
  362DOPC   H4Y49915   3.475   2.838   2.810 -1.3652  0.2262  0.4215
  362DOPC   C3549916   3.554   3.029   2.736  0.7477  0.1731  0.8595
  362DOPC   H5X49917   3.642   3.003   2.798  0.3824  1.6050  2.0130
  362DOPC   H5Y49918   3.483   3.094   2.792 -0.1543 -0.3460  0.3456
  362DOPC   C3649919   3.595   3.096   2.612 -0.5053 -0.7724 -0.3226
  362DOPC   H6X49920   3.646   3.023   2.545 -0.9149 -1.3890  0.0271
  362DOPC   H6Y49921   3.504   3.140   2.565 -0.1139 -0.1301 -0.4886
  362DOPC   C3749922   3.692   3.202   2.646 -0.7629 -0.2117 -0.3501
  362DOPC   H7X49923   3.786   3.161   2.688  0.0688  0.4136 -1.5432
  362DOPC   H7Y49924   3.714   3.261   2.554  0.7352  0.6459  0.5170
  362DOPC   C3849925   3.627   3.313   2.736 -0.4942 -0.5392  0.4758
  362DOPC   H8X49926   3.608   3.266   2.834  1.2492 -0.9078  0.6815
  362DOPC   H8Y49927   3.527   3.351   2.707 -0.1244  0.6040  0.6652
  362DOPC   C3949928   3.724   3.427   2.756  0.9604 -0.1903  0.4607
  362DOPC   H9X49929   3.766   3.476   2.667  0.8664  1.9966  1.5560
  362DOPC  C31049930   3.765   3.480   2.873 -0.5565 -0.4509  0.2733
  362DOPC  H10X49931   3.844   3.556   2.872 -1.2022  0.2339 -0.4720
  362DOPC  C31149932   3.689   3.463   3.002  0.8724 -0.4100  0.2991
  362DOPC  H11X49933   3.581   3.442   2.987  0.7454  1.0579 -1.0669
  362DOPC  H11Y49934   3.695   3.553   3.067 -0.7066  0.0224 -0.1105
  362DOPC  C31249935   3.763   3.343   3.070  0.0035  0.0740 -0.4374
  362DOPC  H12X49936   3.866   3.380   3.087 -0.8047  2.2306  0.0329
  362DOPC  H12Y49937   3.761   3.255   3.001 -0.4200  0.5122 -1.0002
  362DOPC  C31349938   3.710   3.314   3.214  0.3267 -0.0815  0.6702
  362DOPC  H13X49939   3.700   3.411   3.267  1.4068  0.7611 -0.6085
  362DOPC  H13Y49940   3.602   3.290   3.199  0.4357  1.1515 -3.6301
  362DOPC  C31449941   3.786   3.206   3.290 -0.1784 -0.1708 -0.1189
  362DOPC  H14X49942   3.772   3.121   3.220  1.1053 -1.2683  0.9017
  362DOPC  H14Y49943   3.886   3.248   3.315 -0.1237  0.6502 -1.6152
  362DOPC  C31549944   3.721   3.182   3.429 -0.6267  0.4003  0.7019
  362DOPC  H15X49945   3.615   3.153   3.409 -0.7489  1.0652  0.3495
  362DOPC  H15Y49946   3.710   3.271   3.496  3.4657 -0.6320  3.0833
  362DOPC  C31649947   3.786   3.058   3.495 -0.3673 -0.2710  0.0062
  362DOPC  H16X49948   3.807   2.977   3.422 -0.5310  0.6431 -1.0714
  362DOPC  H16Y49949   3.890   3.086   3.522 -0.5628  0.0674  0.4209
  362DOPC  C31749950   3.718   2.984   3.613  0.2876  0.3431 -0.3087
  362DOPC  H17X49951   3.746   3.045   3.701 -1.1719 -1.4495  1.4967
  362DOPC  H17Y49952   3.609   2.974   3.594  0.4039 -1.0713 -0.3611
  362DOPC  C31849953   3.763   2.840   3.649  0.3676 -0.2887 -0.0768
  362DOPC  H18X49954   3.737   2.813   3.754  3.1955 -0.6902  0.6004
  362DOPC  H18Y49955   3.713   2.767   3.582 -0.3997  0.4779 -0.3658
  362DOPC  H18Z49956   3.871   2.829   3.628  0.5479  1.4719 -0.2325
  363DOPC     N49957   9.509   9.016   1.550 -0.0490  0.6051 -0.8120
  363DOPC   C1249958   9.620   9.041   1.650  0.4855 -0.0136  0.4588
  363DOPC  H12A49959   9.625   8.951   1.711 -0.1662 -2.8161 -3.2912
  363DOPC  H12B49960   9.584   9.124   1.708  0.4701  1.8962 -2.1238
  363DOPC   C1349961   9.478   9.139   1.471  0.2822 -0.3946  0.2610
  363DOPC  H13A49962   9.394   9.124   1.405  0.5452 -0.8137  0.0172
  363DOPC  H13B49963   9.460   9.225   1.535 -0.7100  1.0182 -1.8089
  363DOPC  H13C49964   9.554   9.163   1.398  0.1204  0.8772  0.4828
  363DOPC   C1449965   9.382   8.978   1.617 -0.5557  0.6662  0.0328
  363DOPC  H14A49966   9.382   8.881   1.664  0.2670  0.5616 -0.1615
  363DOPC  H14B49967   9.351   9.055   1.687 -0.6258  1.1238 -0.4977
  363DOPC  H14C49968   9.303   8.973   1.544 -0.3515 -0.2423 -0.1413
  363DOPC   C1549969   9.554   8.912   1.454  0.1660  0.0312  0.4807
  363DOPC  H15A49970   9.478   8.861   1.397  0.8881 -0.0577 -0.4424
  363DOPC  H15B49971   9.603   8.834   1.509 -1.7609 -1.1976  0.5538
  363DOPC  H15C49972   9.627   8.959   1.390 -0.0127  0.3986  0.5425
  363DOPC   C1149973   9.761   9.072   1.596 -0.0857 -0.0834 -0.7083
  363DOPC  H11A49974   9.745   9.149   1.517 -0.9366 -1.6200 -2.1082
  363DOPC  H11B49975   9.819   9.118   1.679 -0.4469 -2.3756  0.9085
  363DOPC     P49976   9.904   8.860   1.639 -0.1932 -0.0692 -0.6085
  363DOPC   O1349977  10.049   8.875   1.610 -0.5614 -0.5440 -0.1169
  363DOPC   O1449978   9.848   8.725   1.621  0.0142  0.1957 -0.3714
  363DOPC   O1249979   9.817   8.950   1.546 -0.4160  0.0462  0.4312
  363DOPC   O1149980   9.860   8.912   1.784 -0.4757  1.2540  0.3499
  363DOPC    C149981   9.830   8.816   1.889 -0.3347  0.1254  0.2199
  363DOPC    HA49982   9.753   8.741   1.863 -0.9956  0.3348  1.4925
  363DOPC    HB49983   9.794   8.863   1.983  0.4458 -1.9236  1.6170
  363DOPC    C249984   9.959   8.735   1.939 -0.2188 -0.2227 -0.1451
  363DOPC    HS49985   9.979   8.656   1.864  1.0596 -1.3972  1.3549
  363DOPC   O2149986   9.939   8.676   2.072 -0.0216 -0.2643 -0.1237
  363DOPC   C2149987   9.845   8.580   2.075  0.0696 -0.1476  0.0666
  363DOPC   O2249988   9.795   8.531   1.976 -0.3174  0.4852  0.0492
  363DOPC   C2249989   9.817   8.544   2.229 -0.1913  0.1485 -0.2198
  363DOPC   H2R49990   9.842   8.436   2.221  0.4128  0.2973 -0.4044
  363DOPC   H2S49991   9.709   8.556   2.249 -0.3011 -0.6278 -0.3089
  363DOPC    C349992  10.083   8.830   1.952  0.2314  0.3780 -0.0484
  363DOPC    HX49993  10.060   8.894   2.039 -0.5413 -0.9816  0.7928
  363DOPC    HY49994  10.096   8.903   1.869  1.2139  1.0004  0.6396
  363DOPC   O3149995  10.205   8.752   1.978  0.2585 -0.1032 -0.2129
  363DOPC   C3149996  10.292   8.819   2.042  0.1824 -0.7100  0.2161
  363DOPC   O3249997  10.296   8.939   2.059 -0.0241  0.3424 -0.0598
  363DOPC   C3249998  10.403   8.722   2.090 -0.8046 -0.1023  0.1619
  363DOPC   H2X49999  10.385   8.617   2.059 -1.5437  0.0800 -0.0506
  363DOPC   H2Y50000  10.500   8.761   2.050 -1.8200  1.0623 -1.2832
  363DOPC   C2350001   9.907   8.609   2.326 -0.5413 -0.1359 -0.0991
  363DOPC   H3R50002   9.888   8.719   2.327 -3.2773 -0.4912  2.5658
  363DOPC   H3S50003  10.014   8.590   2.303 -1.0905 -1.0102 -2.1597
  363DOPC   C2450004   9.880   8.563   2.469 -0.6572 -0.4503 -0.7327
  363DOPC   H4R50005   9.895   8.453   2.479 -1.5660 -0.3638  3.6958
  363DOPC   H4S50006   9.776   8.601   2.482 -0.7074 -0.5905 -0.7243
  363DOPC   C2550007   9.978   8.636   2.567 -0.3739 -0.3315  0.7331
  363DOPC   H5R50008   9.940   8.736   2.599  1.1313 -0.0962  1.8571
  363DOPC   H5S50009  10.080   8.641   2.523  0.1661 -0.4852  1.9288
  363DOPC   C2650010   9.977   8.559   2.702 -0.1429  0.8056  0.5456
  363DOPC   H6R50011   9.990   8.451   2.679  1.0783  1.3116 -1.4878
  363DOPC   H6S50012   9.872   8.567   2.738 -1.0297 -2.0299 -1.1046
  363DOPC   C2750013  10.074   8.608   2.814  0.3961  0.5613 -0.3428
  363DOPC   H7R50014  10.071   8.719   2.820  0.8741  0.7455 -2.5616
  363DOPC   H7S50015  10.169   8.587   2.760 -1.5635  0.6566 -4.1413
  363DOPC   C2850016  10.051   8.527   2.947 -0.7998 -0.0391 -0.3714
  363DOPC   H8R50017  10.042   8.418   2.928 -1.1809 -0.1766  0.5417
  363DOPC   H8S50018   9.952   8.562   2.982 -1.8738 -1.5555 -1.7814
  363DOPC   C2950019  10.166   8.526   3.041  0.3482  0.0927 -0.5118
  363DOPC   H9R50020  10.251   8.465   3.008  0.0042 -2.5682  2.9544
  363DOPC  C21050021  10.180   8.584   3.163  0.7537  0.1735  0.0511
  363DOPC  H10R50022  10.280   8.580   3.209  0.7615 -1.2382 -0.0647
  363DOPC  C21150023  10.076   8.661   3.237  1.0501  0.2806 -0.0934
  363DOPC  H11R50024  10.030   8.729   3.162  0.6904  0.2780  0.1186
  363DOPC  H11S50025  10.118   8.713   3.326  0.2093 -1.8324  1.6177
  363DOPC  C21250026   9.960   8.571   3.299 -0.4807  0.1641 -0.0360
  363DOPC  H12R50027   9.921   8.514   3.211  0.8634  0.8285 -1.1080
  363DOPC  H12S50028   9.886   8.647   3.331 -0.6340 -0.0641  0.1502
  363DOPC  C21350029  10.003   8.473   3.411 -0.6488 -0.0420  0.6559
  363DOPC  H13R50030  10.112   8.452   3.401 -0.5638  0.8881 -0.6410
  363DOPC  H13S50031   9.951   8.378   3.387 -1.5021  0.8667 -1.3072
  363DOPC  C21450032   9.953   8.517   3.551 -0.4826 -0.3284  0.0868
  363DOPC  H14R50033   9.847   8.551   3.551  0.0792  1.6055 -1.9746
  363DOPC  H14S50034  10.020   8.604   3.569  1.2077 -1.1898 -1.7462
  363DOPC  C21550035   9.964   8.408   3.670  0.0366 -0.1787 -0.7674
  363DOPC  H15R50036   9.909   8.313   3.651  1.7874 -2.0957  2.7290
  363DOPC  H15S50037   9.921   8.453   3.762 -4.8297 -2.1806 -1.7291
  363DOPC  C21650038  10.108   8.383   3.705 -0.0903  0.1325 -0.0203
  363DOPC  H16R50039  10.154   8.477   3.740  1.5275 -0.7449  0.3235
  363DOPC  H16S50040  10.164   8.354   3.614  0.2112 -0.2345  0.2780
  363DOPC  C21750041  10.138   8.276   3.808 -0.7243 -0.6768 -0.1803
  363DOPC  H17R50042  10.091   8.182   3.771 -0.9996 -1.3533  1.7291
  363DOPC  H17S50043  10.075   8.299   3.897 -0.1068  0.7348 -0.0899
  363DOPC  C21850044  10.284   8.245   3.844  0.0033  0.0749 -0.1131
  363DOPC  H18R50045  10.347   8.242   3.753  1.3504 -1.6499  0.8088
  363DOPC  H18S50046  10.291   8.151   3.903  1.3696 -0.6445 -1.3480
  363DOPC  H18T50047  10.325   8.326   3.909  0.4900 -0.0512 -0.2559
  363DOPC   C3350048  10.424   8.746   2.246 -0.1272  0.1456  0.2893
  363DOPC   H3X50049  10.332   8.707   2.293 -1.7087  1.8329 -1.2316
  363DOPC   H3Y50050  10.430   8.855   2.263 -2.1298  0.2605  0.5052
  363DOPC   C3450051  10.557   8.693   2.297  0.1908 -0.1595 -0.0724
  363DOPC   H4X50052  10.639   8.759   2.262 -0.5256  1.5983  1.4314
  363DOPC   H4Y50053  10.573   8.593   2.250  1.0141 -0.9317  1.7745
  363DOPC   C3550054  10.562   8.671   2.447  0.3193 -0.1815 -0.5309
  363DOPC   H5X50055  10.666   8.640   2.471 -0.1449 -0.2856  1.4828
  363DOPC   H5Y50056  10.499   8.583   2.472 -0.5982  0.6551  0.1652
  363DOPC   C3650057  10.537   8.791   2.530 -0.6305  0.2279  0.3835
  363DOPC   H6X50058  10.616   8.867   2.511 -1.0374  0.4242 -0.6066
  363DOPC   H6Y50059  10.436   8.831   2.505 -0.2889  3.4840  3.3947
  363DOPC   C3750060  10.551   8.760   2.678  0.0496  0.0566 -0.7722
  363DOPC   H7X50061  10.641   8.695   2.690  0.0160 -0.5021 -3.1816
  363DOPC   H7Y50062  10.578   8.848   2.740  1.6448 -1.1305  0.3024
  363DOPC   C3850063  10.427   8.680   2.734  0.5239 -0.1360 -0.2279
  363DOPC   H8X50064  10.400   8.596   2.667  1.1548 -0.4100 -0.1410
  363DOPC   H8Y50065  10.340   8.749   2.724  0.2046 -0.5240 -0.1529
  363DOPC   C3950066  10.459   8.649   2.875 -0.7212  0.2101 -0.9530
  363DOPC   H9X50067  10.509   8.554   2.897  1.8556  1.7822  0.5636
  363DOPC  C31050068  10.456   8.728   2.983  0.2343  0.3006  0.4182
  363DOPC  H10X50069  10.501   8.693   3.077  1.7455 -2.2013 -1.1033
  363DOPC  C31150070  10.417   8.873   2.972 -0.3774  0.8460  0.0270
  363DOPC  H11X50071  10.346   8.888   2.888 -3.1423 -1.9426  1.6613
  363DOPC  H11Y50072  10.510   8.930   2.953  0.0970  0.2154  0.4207
  363DOPC  C31250073  10.351   8.927   3.097  0.3742  0.7838  0.9057
  363DOPC  H12X50074  10.253   8.877   3.114  0.8186  0.0548  1.4085
  363DOPC  H12Y50075  10.346   9.036   3.079  1.4108  0.7146  0.1090
  363DOPC  C31350076  10.444   8.911   3.218  0.0456 -0.3639 -0.1618
  363DOPC  H13X50077  10.448   8.808   3.260  1.8147 -0.3151 -0.1127
  363DOPC  H13Y50078  10.548   8.945   3.196  0.3779 -0.8129  0.6425
  363DOPC  C31450079  10.407   9.011   3.330  0.2612 -0.0422 -0.0976
  363DOPC  H14X50080  10.477   8.998   3.416 -0.4204 -1.0458  0.3371
  363DOPC  H14Y50081  10.412   9.118   3.301 -1.0614 -0.8083 -3.6701
  363DOPC  C31550082  10.265   9.010   3.393  0.5170  0.4837  0.0392
  363DOPC  H15X50083  10.259   8.922   3.460 -2.1175 -0.4912 -1.3089
  363DOPC  H15Y50084  10.186   8.996   3.316  1.0926 -0.2850 -0.4204
  363DOPC  C31650085  10.225   9.136   3.481 -0.8038  0.1188 -1.4797
  363DOPC  H16X50086  10.210   9.219   3.407 -1.7076  4.6257  3.1750
  363DOPC  H16Y50087  10.123   9.120   3.522 -0.0553 -0.1004  0.3684
  363DOPC  C31750088  10.329   9.180   3.583 -0.9992 -0.2743 -0.0405
  363DOPC  H17X50089  10.431   9.190   3.541 -0.7474  0.3090  0.7081
  363DOPC  H17Y50090  10.308   9.288   3.602 -2.5357 -0.9766  2.8890
  363DOPC  C31850091  10.332   9.098   3.708  0.0383  0.4303  0.1511
  363DOPC  H18X50092  10.418   9.118   3.775 -0.4838  0.5207  0.8038
  363DOPC  H18Y50093  10.237   9.108   3.765 -1.6287 -1.8090 -2.0362
  363DOPC  H18Z50094  10.329   8.989   3.689 -1.0012  0.5619 -0.5244
  364DOPC     N50095   4.565  11.666   1.918 -0.0959 -0.1102  0.0172
  364DOPC   C1250096   4.478  11.723   2.034 -0.2155 -0.1176 -0.1968
  364DOPC  H12A50097   4.396  11.655   2.054 -1.0493  0.9545  0.2115
  364DOPC  H12B50098   4.434  11.811   1.990  2.1687  1.2224 -0.0558
  364DOPC   C1350099   4.651  11.779   1.864  0.0462 -0.3662 -0.2171
  364DOPC  H13A50100   4.712  11.749   1.780  3.7218 -0.6313  2.2868
  364DOPC  H13B50101   4.586  11.856   1.825 -0.1086  1.3047  3.0393
  364DOPC  H13C50102   4.711  11.824   1.942 -0.3062  0.2064 -0.2747
  364DOPC   C1450103   4.467  11.641   1.803  0.1051 -0.7870  0.2631
  364DOPC  H14A50104   4.431  11.736   1.765 -0.4968 -0.9858  0.3351
  364DOPC  H14B50105   4.512  11.604   1.712 -2.3498  1.2446 -1.9420
  364DOPC  H14C50106   4.387  11.578   1.838  1.2404 -1.2449  2.2165
  364DOPC   C1550107   4.636  11.542   1.954 -0.1426 -0.3080  0.0365
  364DOPC  H15A50108   4.575  11.462   1.993  0.9847 -0.0320  2.5565
  364DOPC  H15B50109   4.714  11.558   2.027 -0.3359  0.3016  0.1125
  364DOPC  H15C50110   4.670  11.497   1.861 -0.5004  0.1026 -0.2950
  364DOPC   C1150111   4.546  11.762   2.169 -0.1001 -0.1494 -0.0552
  364DOPC  H11A50112   4.463  11.774   2.241 -0.1329 -1.0525  0.0748
  364DOPC  H11B50113   4.611  11.678   2.203 -0.7323 -1.0515 -0.9943
  364DOPC     P50114   4.559  12.018   2.198 -0.0626  0.0909  0.4022
  364DOPC   O1350115   4.434  12.041   2.122 -0.0611 -0.1127 -0.0198
  364DOPC   O1450116   4.668  12.119   2.193  0.5126  0.5146 -0.5297
  364DOPC   O1250117   4.620  11.882   2.151 -0.8320  0.6192 -0.1560
  364DOPC   O1150118   4.513  12.003   2.347 -0.5820  0.2037  0.3632
  364DOPC    C150119   4.577  11.943   2.454 -0.2491  1.0343  0.2297
  364DOPC    HA50120   4.637  11.860   2.411  1.2560  2.5482 -0.7507
  364DOPC    HB50121   4.500  11.899   2.520  0.8565 -1.2690  0.0771
  364DOPC    C250122   4.653  12.044   2.550 -0.3282 -0.1412 -0.6366
  364DOPC    HS50123   4.743  12.062   2.488  0.2379  0.4966  0.3309
  364DOPC   O2150124   4.704  11.969   2.663 -0.0629 -0.1342  0.3516
  364DOPC   C2150125   4.782  12.031   2.740  0.3302 -0.1332 -0.4395
  364DOPC   O2250126   4.847  12.130   2.711 -0.4168 -0.2551  0.3391
  364DOPC   C2250127   4.796  11.940   2.869  0.1276  0.6320  0.3641
  364DOPC   H2R50128   4.842  11.848   2.826 -1.7972 -0.0215 -0.3812
  364DOPC   H2S50129   4.695  11.913   2.906 -1.0364 -0.1989 -3.0039
  364DOPC    C350130   4.567  12.170   2.593  0.2786 -0.6930  0.3545
  364DOPC    HX50131   4.531  12.224   2.503 -0.0311  0.6567  1.2590
  364DOPC    HY50132   4.625  12.256   2.634 -0.6008  1.4119 -2.4800
  364DOPC   O3150133   4.452  12.139   2.677 -0.2458  0.2397  0.0011
  364DOPC   C3150134   4.362  12.233   2.684  0.9163  0.0788  0.1984
  364DOPC   O3250135   4.347  12.333   2.617 -0.2267 -0.4599 -0.6121
  364DOPC   C3250136   4.264  12.191   2.796 -0.1558  0.1650  0.1732
  364DOPC   H2X50137   4.200  12.111   2.753  0.5416  0.0492 -0.6717
  364DOPC   H2Y50138   4.314  12.139   2.881  1.8988  0.4069 -0.8235
  364DOPC   C2350139   4.875  12.011   2.977  0.6860  0.2587 -0.0685
  364DOPC   H3R50140   4.836  11.982   3.077 -0.9109  2.2469 -0.0485
  364DOPC   H3S50141   4.852  12.119   2.984 -2.0740 -0.2713  0.1300
  364DOPC   C2450142   5.020  11.976   2.971  0.0086  0.1728 -0.5153
  364DOPC   H4R50143   5.057  12.030   2.881 -0.9512  0.6142 -0.6607
  364DOPC   H4S50144   5.052  11.871   2.957 -1.3154 -0.3892  0.5188
  364DOPC   C2550145   5.091  12.008   3.102  0.2428 -0.7882  0.3752
  364DOPC   H5R50146   5.079  12.115   3.127 -0.1083 -1.0469  1.3430
  364DOPC   H5S50147   5.201  11.989   3.100  0.9369  2.7405 -0.8469
  364DOPC   C2650148   5.038  11.928   3.224  1.1611  0.3727 -0.1230
  364DOPC   H6R50149   5.007  11.825   3.195  0.7909  0.5152 -0.2371
  364DOPC   H6S50150   4.943  11.965   3.267  1.0419  1.3769 -1.2304
  364DOPC   C2750151   5.127  11.926   3.347  0.0241 -0.3341  0.5069
  364DOPC   H7R50152   5.232  11.895   3.327  0.8119  2.3672 -0.0801
  364DOPC   H7S50153   5.082  11.857   3.420  1.2195 -1.5001  0.1891
  364DOPC   C2850154   5.141  12.069   3.419 -0.3091  0.5060 -0.6598
  364DOPC   H8R50155   5.185  12.141   3.347  0.4372  0.9273  0.1961
  364DOPC   H8S50156   5.214  12.053   3.501 -2.0680 -0.6108  0.7822
  364DOPC   C2950157   5.013  12.128   3.475 -0.0118 -0.2419 -0.1636
  364DOPC   H9R50158   4.948  12.162   3.393  0.7973  0.6927 -0.4446
  364DOPC  C21050159   4.969  12.128   3.601 -1.1090  0.5099  0.1988
  364DOPC  H10R50160   4.869  12.173   3.616 -1.0671  0.5111  0.4729
  364DOPC  C21150161   5.038  12.065   3.715  0.5025  0.1415  0.5213
  364DOPC  H11R50162   5.084  11.973   3.674  0.5775  0.8096 -0.9754
  364DOPC  H11S50163   4.966  12.015   3.783 -2.0584  2.6676 -0.1523
  364DOPC  C21250164   5.134  12.156   3.785  0.1120 -0.5527 -0.4940
  364DOPC  H12R50165   5.082  12.232   3.847  1.8110 -0.9468  1.5587
  364DOPC  H12S50166   5.208  12.198   3.714 -1.8342  0.0004 -2.3060
  364DOPC  C21350167   5.216  12.080   3.891 -0.0355  0.6823 -0.4752
  364DOPC  H13R50168   5.302  12.145   3.920  0.9184 -0.5757 -0.3952
  364DOPC  H13S50169   5.259  11.993   3.837  1.0523 -0.9419  2.7620
  364DOPC  C21450170   5.137  12.041   4.018  0.0912 -0.3579 -0.5347
  364DOPC  H14R50171   5.055  11.971   3.993  0.6757 -1.7873  1.3086
  364DOPC  H14S50172   5.092  12.127   4.073 -1.0056 -1.4738  0.3533
  364DOPC  C21550173   5.221  11.960   4.119  0.2530 -0.1825  0.2039
  364DOPC  H15R50174   5.305  12.021   4.158 -0.0817  0.6550 -0.3455
  364DOPC  H15S50175   5.261  11.875   4.060 -0.2058 -1.5069  1.7402
  364DOPC  C21650176   5.140  11.900   4.234 -0.2082 -0.2037  0.9015
  364DOPC  H16R50177   5.058  11.835   4.198 -0.6156  1.0754 -0.6194
  364DOPC  H16S50178   5.111  11.984   4.301 -1.4639 -0.9794  1.3597
  364DOPC  C21750179   5.226  11.816   4.325  0.8666 -0.0083 -0.0578
  364DOPC  H17R50180   5.305  11.882   4.366  0.0285  0.2180  1.2827
  364DOPC  H17S50181   5.281  11.736   4.272  1.5192 -0.6590  1.5172
  364DOPC  C21850182   5.161  11.766   4.451 -0.4942 -0.0324  0.4595
  364DOPC  H18R50183   5.121  11.856   4.502  2.0559  1.5920 -0.2269
  364DOPC  H18S50184   5.225  11.722   4.530 -0.2159  0.7873  0.6991
  364DOPC  H18T50185   5.087  11.689   4.421  1.5752 -2.1780  0.5943
  364DOPC   C3350186   4.178  12.316   2.845 -0.8654 -0.3176  0.3872
  364DOPC   H3X50187   4.117  12.362   2.765 -2.2873 -0.3170  1.4312
  364DOPC   H3Y50188   4.244  12.393   2.891 -1.5567  1.4218 -1.3690
  364DOPC   C3450189   4.073  12.256   2.946  0.0374 -0.1804  0.2898
  364DOPC   H4X50190   4.037  12.158   2.909 -1.2759  0.0274  0.9505
  364DOPC   H4Y50191   3.983  12.322   2.953  0.7179  0.7061  0.9140
  364DOPC   C3550192   4.121  12.228   3.089 -0.0416  0.5941 -0.2248
  364DOPC   H5X50193   4.192  12.143   3.079  0.0138  0.4259  1.3553
  364DOPC   H5Y50194   4.041  12.175   3.143  1.8902 -0.2503  1.9809
  364DOPC   C3650195   4.167  12.352   3.175 -0.0921 -0.7776 -0.4219
  364DOPC   H6X50196   4.236  12.414   3.114  0.4842 -1.0016 -0.0104
  364DOPC   H6Y50197   4.074  12.410   3.198 -0.2695 -0.4680 -1.8611
  364DOPC   C3750198   4.229  12.314   3.310  0.3582  0.0132 -0.3041
  364DOPC   H7X50199   4.165  12.237   3.358  0.1457 -1.9931 -3.5291
  364DOPC   H7Y50200   4.329  12.270   3.293  0.8644  1.1845 -0.4759
  364DOPC   C3850201   4.250  12.434   3.410 -0.0668 -0.6373  0.8386
  364DOPC   H8X50202   4.304  12.511   3.352  1.2011 -0.7122  1.8848
  364DOPC   H8Y50203   4.318  12.403   3.491  1.5484 -0.1463 -0.2857
  364DOPC   C3950204   4.112  12.496   3.451 -0.5492  0.3537  0.1238
  364DOPC   H9X50205   4.061  12.547   3.368 -2.1000 -1.1597  0.1182
  364DOPC  C31050206   4.059  12.495   3.574  0.6937 -0.7619 -0.7202
  364DOPC  H10X50207   3.962  12.541   3.601  1.8923  0.7590  1.3069
  364DOPC  C31150208   4.138  12.445   3.690  0.3357  0.1268 -0.3084
  364DOPC  H11X50209   4.095  12.491   3.781 -0.4451 -0.8399 -0.1709
  364DOPC  H11Y50210   4.242  12.483   3.678  0.5918 -0.0019  1.2904
  364DOPC  C31250211   4.118  12.292   3.701  0.0226  0.3712 -1.0687
  364DOPC  H12X50212   4.129  12.245   3.601  1.1590 -1.1517 -0.2694
  364DOPC  H12Y50213   4.022  12.257   3.743  1.3772 -1.6380  0.5482
  364DOPC  C31350214   4.226  12.234   3.790  0.2578 -0.3728 -0.0499
  364DOPC  H13X50215   4.325  12.278   3.765  0.8889 -1.2478  0.8346
  364DOPC  H13Y50216   4.206  12.257   3.897  1.6989 -1.9457  0.6081
  364DOPC  C31450217   4.221  12.082   3.794 -0.2007 -0.1035  0.1192
  364DOPC  H14X50218   4.121  12.047   3.829 -0.9104  2.4513  0.9102
  364DOPC  H14Y50219   4.241  12.046   3.691  1.3092 -0.5792  0.5584
  364DOPC  C31550220   4.336  12.023   3.873  0.4252 -0.2344 -0.2910
  364DOPC  H15X50221   4.316  12.055   3.978 -1.4741  0.0470 -0.7181
  364DOPC  H15Y50222   4.431  12.072   3.840  1.6342  0.0044  3.1452
  364DOPC  C31650223   4.358  11.877   3.856 -0.1401  0.3103  0.7147
  364DOPC  H16X50224   4.273  11.823   3.904 -2.1099  0.8958 -1.8667
  364DOPC  H16Y50225   4.367  11.842   3.751  1.8357  0.8159  0.6713
  364DOPC  C31750226   4.494  11.825   3.918  0.8002  0.7793 -0.6174
  364DOPC  H17X50227   4.570  11.898   3.882  0.6297  1.0043 -0.5241
  364DOPC  H17Y50228   4.491  11.824   4.029  1.2253 -1.2418 -0.5768
  364DOPC  C31850229   4.540  11.684   3.858 -0.0695  0.0987 -0.2292
  364DOPC  H18X50230   4.651  11.688   3.850 -0.0825 -0.8117 -1.0470
  364DOPC  H18Y50231   4.511  11.595   3.916  0.3013 -1.0261 -1.7174
  364DOPC  H18Z50232   4.512  11.668   3.752  1.1356 -0.0917 -0.5381
  365DOPC     N50233  10.677   3.017   1.908  0.2420  0.2683  0.0590
  365DOPC   C1250234  10.658   2.966   2.048  0.0726 -0.2482  0.2578
  365DOPC  H12A50235  10.722   2.879   2.052  0.3306 -0.0202  2.6522
  365DOPC  H12B50236  10.559   2.927   2.065  1.2493 -2.5378  2.5870
  365DOPC   C1350237  10.818   3.043   1.878  0.1738  0.5493 -0.4062
  365DOPC  H13A50238  10.882   2.957   1.872 -1.6176 -0.8792  0.0100
  365DOPC  H13B50239  10.830   3.110   1.794  0.1251  0.8239 -0.1974
  365DOPC  H13C50240  10.857   3.101   1.960 -0.9177 -1.5754  1.7401
  365DOPC   C1450241  10.603   3.146   1.883  0.4635  0.8130 -0.0873
  365DOPC  H14A50242  10.602   3.179   1.780 -1.5184 -1.4407 -0.8822
  365DOPC  H14B50243  10.498   3.131   1.904 -0.0527  2.6922 -1.0630
  365DOPC  H14C50244  10.631   3.217   1.960  1.0459  0.6354 -0.1376
  365DOPC   C1550245  10.632   2.926   1.801  0.7170 -0.0205  0.3748
  365DOPC  H15A50246  10.648   2.961   1.700  0.4324  0.8069  0.6132
  365DOPC  H15B50247  10.527   2.904   1.806  0.5690  0.7358  0.7363
  365DOPC  H15C50248  10.691   2.835   1.808  0.2146 -0.3447  0.4105
  365DOPC   C1150249  10.712   3.037   2.174  1.0563 -0.0266  0.1905
  365DOPC  H11A50250  10.642   3.123   2.177  0.7040 -0.2252 -1.4151
  365DOPC  H11B50251  10.684   2.978   2.264 -2.5498  0.9432 -0.1390
  365DOPC     P50252  10.969   3.004   2.207  0.2546  0.3432  0.0492
  365DOPC   O1350253  11.074   3.043   2.113  0.2286 -0.9939  0.2466
  365DOPC   O1450254  10.929   2.862   2.211  0.5859  0.0188  0.2892
  365DOPC   O1250255  10.842   3.089   2.174  0.5378  0.4706  0.2966
  365DOPC   O1150256  11.031   3.050   2.345 -0.5786  0.0873  0.0454
  365DOPC    C150257  10.953   3.111   2.443  0.9626  0.4838  0.2606
  365DOPC    HA50258  10.870   3.043   2.471  1.9660 -0.3671  1.2559
  365DOPC    HB50259  10.903   3.204   2.408 -2.1100 -0.3026  2.1449
  365DOPC    C250260  11.036   3.138   2.563 -0.2087  0.0483  0.3436
  365DOPC    HS50261  10.968   3.173   2.643 -1.6155  1.0942 -1.2513
  365DOPC   O2150262  11.129   3.238   2.520  0.4440 -0.0501 -0.2610
  365DOPC   C2150263  11.083   3.364   2.544 -0.1649  0.0525  0.0221
  365DOPC   O2250264  10.976   3.388   2.600 -0.2242 -0.9554 -0.5531
  365DOPC   C2250265  11.180   3.461   2.485  0.0912 -0.0444 -0.5059
  365DOPC   H2R50266  11.124   3.514   2.405 -0.0121  0.6040 -0.0082
  365DOPC   H2S50267  11.261   3.401   2.438  0.1465 -1.7775  1.6436
  365DOPC    C350268  11.109   3.006   2.604  0.1078  0.2582  0.3696
  365DOPC    HX50269  11.187   2.977   2.531 -0.8442  1.0144 -0.9875
  365DOPC    HY50270  11.037   2.924   2.587  1.1069 -0.5236 -0.2176
  365DOPC   O3150271  11.146   3.005   2.745  0.1358  0.3048 -0.5493
  365DOPC   C3150272  11.224   2.903   2.781  0.6074 -0.0879 -0.1432
  365DOPC   O3250273  11.245   2.808   2.705  0.0937 -0.1020 -0.3307
  365DOPC   C3250274  11.264   2.910   2.922  0.2905 -0.4661  0.4374
  365DOPC   H2X50275  11.298   3.015   2.940  0.4165 -0.4572  0.1603
  365DOPC   H2Y50276  11.175   2.896   2.987 -0.7347 -0.0003 -0.7987
  365DOPC   C2350277  11.243   3.550   2.593  0.1716  0.2852  0.0092
  365DOPC   H3R50278  11.270   3.494   2.685 -0.7118  1.0520  0.7541
  365DOPC   H3S50279  11.164   3.619   2.627 -1.2974 -2.5705  3.0138
  365DOPC   C2450280  11.362   3.630   2.529  0.1652  0.4112  1.0477
  365DOPC   H4R50281  11.312   3.677   2.442 -2.5438 -0.0277  2.2798
  365DOPC   H4S50282  11.446   3.568   2.492 -1.5337 -1.0553 -0.5504
  365DOPC   C2550283  11.402   3.740   2.625 -0.0231  0.6414 -0.2474
  365DOPC   H5R50284  11.439   3.698   2.721 -0.0802 -0.5738 -0.7351
  365DOPC   H5S50285  11.315   3.802   2.656 -1.2755 -1.8438  1.5992
  365DOPC   C2650286  11.510   3.820   2.561 -0.6066 -0.8142  0.0272
  365DOPC   H6R50287  11.492   3.840   2.453 -1.5246  0.4016  0.3811
  365DOPC   H6S50288  11.599   3.753   2.559 -1.9460 -2.7007  0.6349
  365DOPC   C2750289  11.547   3.948   2.641  0.2547  0.2405  0.6807
  365DOPC   H7R50290  11.564   3.903   2.742 -0.7429 -1.3432  0.1868
  365DOPC   H7S50291  11.465   4.023   2.650  0.3064  0.5085 -0.8069
  365DOPC   C2850292  11.682   4.014   2.612 -0.0219 -0.1484 -0.3274
  365DOPC   H8R50293  11.702   4.101   2.677 -0.5472 -0.7209  0.6233
  365DOPC   H8S50294  11.675   4.063   2.513  0.2357 -0.2012 -0.3734
  365DOPC   C2950295  11.803   3.924   2.625 -0.2139 -0.2588  0.0183
  365DOPC   H9R50296  11.860   3.932   2.531  0.5621 -2.1379  0.2891
  365DOPC  C21050297  11.857   3.856   2.730  0.8582  0.6557  0.2925
  365DOPC  H10R50298  11.940   3.785   2.714 -0.3232 -0.2352 -2.4007
  365DOPC  C21150299  11.793   3.840   2.869 -0.2913  0.2607  0.5796
  365DOPC  H11R50300  11.736   3.745   2.861 -0.6845  0.5966 -0.8155
  365DOPC  H11S50301  11.733   3.932   2.885 -0.0207  0.6957 -0.7414
  365DOPC  C21250302  11.905   3.828   2.978 -0.0992 -0.4172 -0.0408
  365DOPC  H12R50303  11.959   3.732   2.967 -0.1327 -0.2349 -2.4986
  365DOPC  H12S50304  11.862   3.833   3.080  0.8526  1.7305  0.3084
  365DOPC  C21350305  11.999   3.956   2.974 -0.1594  0.7785  0.2399
  365DOPC  H13R50306  11.946   4.042   2.928 -1.3699 -1.5407 -3.1009
  365DOPC  H13S50307  12.089   3.935   2.912  0.6574 -0.9999  1.9110
  365DOPC  C21450308  12.046   4.005   3.114 -0.5268  0.0097  0.4551
  365DOPC  H14R50309  12.145   4.052   3.092 -0.5753 -0.2289 -0.2988
  365DOPC  H14S50310  12.070   3.928   3.190  0.0627  0.6376  0.9236
  365DOPC  C21550311  11.948   4.108   3.185  0.5876  0.6087  0.1224
  365DOPC  H15R50312  11.849   4.063   3.207  0.5083  1.2795  1.2096
  365DOPC  H15S50313  11.928   4.195   3.118  0.7558  0.5990  0.0582
  365DOPC  C21650314  11.998   4.152   3.313  0.1182  0.0864  0.0244
  365DOPC  H16R50315  12.100   4.194   3.300 -0.0808  0.2557 -1.1555
  365DOPC  H16S50316  12.009   4.055   3.364  1.3806  0.3922  0.3648
  365DOPC  C21750317  11.909   4.244   3.391  0.3689 -0.5370 -0.2198
  365DOPC  H17R50318  11.939   4.241   3.498 -1.4089 -0.2320  0.3142
  365DOPC  H17S50319  11.806   4.204   3.387  0.1746 -0.0539 -0.1411
  365DOPC  C21850320  11.897   4.398   3.340  0.0248 -0.8522  1.0077
  365DOPC  H18R50321  11.822   4.452   3.403  1.2086 -0.2581  1.9620
  365DOPC  H18S50322  11.875   4.411   3.232  3.6601  0.5371  0.2839
  365DOPC  H18T50323  11.997   4.448   3.343 -0.7386  1.1136 -1.9442
  365DOPC   C3350324  11.382   2.817   2.946 -0.0185 -0.2530 -0.4584
  365DOPC   H3X50325  11.446   2.820   2.855 -2.8528  3.1932 -2.6249
  365DOPC   H3Y50326  11.332   2.718   2.952 -0.5992  0.1290  1.7426
  365DOPC   C3450327  11.462   2.840   3.073 -0.3716  0.1418 -0.3659
  365DOPC   H4X50328  11.526   2.931   3.060  0.0206 -0.1785 -0.7188
  365DOPC   H4Y50329  11.528   2.752   3.085 -1.8230 -0.6088  3.9458
  365DOPC   C3550330  11.369   2.860   3.193 -0.4998 -0.0361 -0.0887
  365DOPC   H5X50331  11.292   2.780   3.200 -0.9407  0.2731 -1.2180
  365DOPC   H5Y50332  11.318   2.956   3.175 -1.9369 -0.9200 -0.9062
  365DOPC   C3650333  11.443   2.859   3.331 -0.3148 -0.6826 -0.1013
  365DOPC   H6X50334  11.377   2.864   3.419  2.0182 -0.0975  1.7255
  365DOPC   H6Y50335  11.483   2.755   3.335 -0.3034 -0.7097 -0.7016
  365DOPC   C3750336  11.553   2.962   3.344 -0.0497 -1.2820  0.2654
  365DOPC   H7X50337  11.631   2.928   3.415 -1.5223 -1.2553  1.9752
  365DOPC   H7Y50338  11.607   2.979   3.248  1.0852 -0.9456  0.9453
  365DOPC   C3850339  11.484   3.096   3.390 -0.3631  0.2294  0.5288
  365DOPC   H8X50340  11.444   3.078   3.492  0.8745  2.0222  1.3659
  365DOPC   H8Y50341  11.411   3.112   3.307  0.6177  0.2678 -0.3480
  365DOPC   C3950342  11.577   3.218   3.393  0.4596  0.0957  0.8249
  365DOPC   H9X50343  11.672   3.195   3.342  0.6649  1.0915  0.7409
  365DOPC  C31050344  11.551   3.341   3.445 -0.0729 -0.5208  0.4296
  365DOPC  H10X50345  11.625   3.420   3.422 -0.4630  0.0964  1.2321
  365DOPC  C31150346  11.421   3.397   3.504  0.1569  0.5984 -0.2086
  365DOPC  H11X50347  11.321   3.365   3.469 -0.4662  1.0910  1.0582
  365DOPC  H11Y50348  11.421   3.508   3.508 -0.5368  0.5795  0.4229
  365DOPC  C31250349  11.421   3.362   3.655 -0.0144  0.8303 -0.1135
  365DOPC  H12X50350  11.528   3.372   3.684 -0.1083  0.2132  0.4684
  365DOPC  H12Y50351  11.397   3.254   3.669 -0.6434  0.6728 -2.0790
  365DOPC  C31350352  11.339   3.456   3.751  0.2016  0.1552 -0.1303
  365DOPC  H13X50353  11.358   3.563   3.732  0.8320  0.1089  0.1871
  365DOPC  H13Y50354  11.231   3.432   3.740  0.1111  0.9122 -0.9891
  365DOPC  C31450355  11.371   3.441   3.902 -0.4839 -0.0457 -0.0830
  365DOPC  H14X50356  11.369   3.332   3.924  1.2638  0.0181  0.5316
  365DOPC  H14Y50357  11.474   3.479   3.920 -0.7054  1.4222 -1.5647
  365DOPC  C31550358  11.273   3.517   3.991 -0.1676  0.2140  0.8524
  365DOPC  H15X50359  11.180   3.459   3.973 -1.5672  2.4064  0.7637
  365DOPC  H15Y50360  11.257   3.621   3.958  1.4651  0.0094 -0.7607
  365DOPC  C31650361  11.306   3.520   4.136 -0.2665 -0.1163 -0.3724
  365DOPC  H16X50362  11.405   3.568   4.149 -1.7374  2.4831  2.1300
  365DOPC  H16Y50363  11.228   3.576   4.191  0.6343 -0.4602  1.3193
  365DOPC  C31750364  11.320   3.380   4.205  0.2607 -0.5139 -0.5137
  365DOPC  H17X50365  11.216   3.342   4.212 -0.3939  1.4975  2.8110
  365DOPC  H17Y50366  11.365   3.306   4.135 -1.0748 -1.1180 -0.7672
  365DOPC  C31850367  11.388   3.380   4.342  0.0121  0.0024 -0.1281
  365DOPC  H18X50368  11.387   3.282   4.394 -2.9280  0.6808  1.3112
  365DOPC  H18Y50369  11.492   3.419   4.337 -0.3382  1.1757  1.1545
  365DOPC  H18Z50370  11.339   3.456   4.406  2.7239  1.9147 -0.1560
  366DOPC     N50371   7.433   1.756   2.018 -0.1007 -0.3428 -0.0915
  366DOPC   C1250372   7.498   1.836   2.130  0.3129  0.7654  0.0146
  366DOPC  H12A50373   7.560   1.915   2.090  0.3069  0.1189 -1.3263
  366DOPC  H12B50374   7.569   1.770   2.177 -1.4145 -0.8369  0.5035
  366DOPC   C1350375   7.361   1.636   2.064  0.2674 -0.7209 -0.2324
  366DOPC  H13A50376   7.326   1.586   1.975  0.5454 -1.6920  0.1894
  366DOPC  H13B50377   7.420   1.577   2.133  0.8391  0.9057  0.7080
  366DOPC  H13C50378   7.272   1.669   2.117 -0.7343  0.4745 -2.5129
  366DOPC   C1450379   7.537   1.696   1.921 -0.3148  0.0740  0.3444
  366DOPC  H14A50380   7.585   1.621   1.982 -2.1751  0.6629  2.6953
  366DOPC  H14B50381   7.497   1.629   1.847 -1.3388 -1.2966  2.0466
  366DOPC  H14C50382   7.612   1.768   1.893  0.6859 -0.6630  1.0367
  366DOPC   C1550383   7.335   1.833   1.936 -0.1092  0.0234  0.5423
  366DOPC  H15A50384   7.274   1.773   1.871  0.2685 -2.7426  2.5607
  366DOPC  H15B50385   7.394   1.913   1.892  0.8577  0.7955  3.0312
  366DOPC  H15C50386   7.262   1.882   1.999 -0.7270 -1.7071  1.2196
  366DOPC   C1150387   7.404   1.903   2.237  0.0135  0.2800  0.3667
  366DOPC  H11A50388   7.481   1.962   2.292  2.8630 -3.7244  1.0865
  366DOPC  H11B50389   7.330   1.974   2.193  0.3973  0.0914 -0.6187
  366DOPC     P50390   7.203   1.781   2.355 -0.1480  0.0702  0.3176
  366DOPC   O1350391   7.131   1.771   2.225 -0.2307 -0.0885 -0.0010
  366DOPC   O1450392   7.174   1.886   2.454  0.0733 -0.7664  0.1440
  366DOPC   O1250393   7.363   1.799   2.320  0.1031 -0.0636  0.3614
  366DOPC   O1150394   7.190   1.640   2.424  0.5287  0.6789  0.7307
  366DOPC    C150395   7.290   1.579   2.501 -0.1319  0.9649  0.0622
  366DOPC    HA50396   7.389   1.615   2.465  0.3506 -0.0002  0.3956
  366DOPC    HB50397   7.270   1.471   2.491  0.0278  0.9512 -0.1122
  366DOPC    C250398   7.284   1.607   2.658 -0.8476 -0.2613  0.7185
  366DOPC    HS50399   7.318   1.712   2.676 -0.5092 -0.2725  0.1644
  366DOPC   O2150400   7.362   1.512   2.740 -0.2965 -0.4123 -0.2230
  366DOPC   C2150401   7.493   1.544   2.730 -0.0196  0.5295 -0.2458
  366DOPC   O2250402   7.540   1.632   2.663 -0.0835 -0.0044  0.1538
  366DOPC   C2250403   7.570   1.436   2.813  0.3521 -0.1781 -0.5410
  366DOPC   H2R50404   7.605   1.360   2.740 -0.6472  0.3293 -1.5732
  366DOPC   H2S50405   7.507   1.381   2.887  1.0107  1.7083  1.5260
  366DOPC    C350406   7.138   1.585   2.698  0.4999  0.7029  0.1373
  366DOPC    HX50407   7.113   1.477   2.704 -4.0680  1.5555 -0.0163
  366DOPC    HY50408   7.074   1.625   2.616  2.7871  2.8488 -0.7641
  366DOPC   O3150409   7.113   1.649   2.827 -0.8392 -0.3021 -0.1612
  366DOPC   C3150410   7.002   1.602   2.887  0.0542  0.2526 -0.2541
  366DOPC   O3250411   6.916   1.532   2.827 -0.0151 -0.9217  0.9456
  366DOPC   C3250412   6.999   1.647   3.033  0.0138 -0.0936  0.3077
  366DOPC   H2X50413   6.909   1.712   3.046 -0.8980 -0.7240 -2.2668
  366DOPC   H2Y50414   6.987   1.554   3.093 -0.8741 -0.4622 -0.4174
  366DOPC   C2350415   7.685   1.502   2.889 -0.7592 -0.3659  0.1718
  366DOPC   H3R50416   7.636   1.583   2.948 -2.3642  0.7330 -2.5272
  366DOPC   H3S50417   7.755   1.549   2.817 -0.6208  0.4381  0.8152
  366DOPC   C2450418   7.764   1.410   2.979 -0.0006  0.8782 -0.7279
  366DOPC   H4R50419   7.829   1.346   2.915  0.6232  0.6233  0.1379
  366DOPC   H4S50420   7.697   1.340   3.034  2.1059  0.8621  2.0050
  366DOPC   C2550421   7.850   1.482   3.078  0.2001 -0.3206  0.5099
  366DOPC   H5R50422   7.791   1.556   3.136  1.4480 -1.8403  3.9582
  366DOPC   H5S50423   7.920   1.543   3.016 -1.9503  0.7274 -1.0138
  366DOPC   C2650424   7.928   1.400   3.185  0.5559  0.3054 -0.0750
  366DOPC   H6R50425   8.009   1.342   3.136  0.0917  1.4085 -2.2704
  366DOPC   H6S50426   7.856   1.335   3.239 -0.4483  1.4712  0.0259
  366DOPC   C2750427   7.995   1.485   3.301  0.6853  0.1043  0.4591
  366DOPC   H7R50428   8.022   1.422   3.388  1.7919 -0.3974 -0.2304
  366DOPC   H7S50429   7.920   1.563   3.327  0.0691 -0.7776  1.4108
  366DOPC   C2850430   8.135   1.544   3.265 -1.0341 -1.4298  0.7950
  366DOPC   H8R50431   8.191   1.461   3.217 -1.0174 -0.6108 -0.6640
  366DOPC   H8S50432   8.188   1.572   3.359 -0.4419  1.1622 -0.2306
  366DOPC   C2950433   8.126   1.667   3.177 -0.1215  0.0758 -0.1587
  366DOPC   H9R50434   8.136   1.644   3.070  1.0953  1.1791 -0.3161
  366DOPC  C21050435   8.125   1.798   3.209 -0.7320  0.5633  0.4018
  366DOPC  H10R50436   8.134   1.876   3.132 -0.8974  1.3049  1.1176
  366DOPC  C21150437   8.121   1.854   3.353  0.1980 -0.1382  0.3431
  366DOPC  H11R50438   8.047   1.802   3.417  0.1927 -0.0893  0.3764
  366DOPC  H11S50439   8.082   1.958   3.349  1.6891  0.4274 -0.7831
  366DOPC  C21250440   8.260   1.862   3.423 -0.1708  0.2482 -0.1298
  366DOPC  H12R50441   8.298   1.760   3.444  0.2362  0.6477  1.1492
  366DOPC  H12S50442   8.249   1.903   3.525 -0.4717  1.5030 -0.6517
  366DOPC  C21350443   8.359   1.944   3.346 -0.2501  0.1914  0.4058
  366DOPC  H13R50444   8.399   1.881   3.264 -1.7516 -0.2910  0.0081
  366DOPC  H13S50445   8.441   1.965   3.418 -0.3180 -0.2960  0.6307
  366DOPC  C21450446   8.315   2.079   3.285  0.0372 -0.0754  0.0504
  366DOPC  H14R50447   8.297   2.153   3.367  1.0877 -1.1199  1.2702
  366DOPC  H14S50448   8.224   2.067   3.222 -0.2410 -1.1905  0.6249
  366DOPC  C21550449   8.422   2.137   3.191 -0.0914 -0.1534 -0.1497
  366DOPC  H15R50450   8.500   2.182   3.256  1.1254 -1.4441 -0.6587
  366DOPC  H15S50451   8.368   2.215   3.134 -1.4174 -0.1710  1.0224
  366DOPC  C21650452   8.481   2.035   3.104  0.5970  0.7676  0.1209
  366DOPC  H16R50453   8.407   1.957   3.077  0.3146  1.2390 -0.4710
  366DOPC  H16S50454   8.569   1.996   3.159 -0.3248 -2.2496 -0.3538
  366DOPC  C21750455   8.547   2.095   2.973  0.2521  0.3460 -0.7629
  366DOPC  H17R50456   8.620   2.032   2.918  0.4788 -1.7516  1.7588
  366DOPC  H17S50457   8.621   2.175   2.996  0.7357 -0.3817  0.2792
  366DOPC  C21850458   8.437   2.155   2.887  0.1974  0.4394 -0.4115
  366DOPC  H18R50459   8.412   2.255   2.930  1.0346  0.5273 -0.1125
  366DOPC  H18S50460   8.351   2.087   2.872  0.4235  0.1036 -0.1820
  366DOPC  H18T50461   8.486   2.178   2.790 -0.5405  3.0620 -0.2520
  366DOPC   C3350462   7.130   1.716   3.078 -0.6062 -1.0229  0.0626
  366DOPC   H3X50463   7.130   1.808   3.015  0.8932  0.3819  1.9801
  366DOPC   H3Y50464   7.223   1.658   3.057 -0.8596 -1.0173 -1.1895
  366DOPC   C3450465   7.124   1.733   3.223  0.2232 -0.3008  0.3416
  366DOPC   H4X50466   7.111   1.640   3.282 -1.4009  0.3102  1.0125
  366DOPC   H4Y50467   7.036   1.797   3.245  0.1476  0.6161 -2.3062
  366DOPC   C3550468   7.249   1.792   3.273  0.1353 -0.5976 -0.2870
  366DOPC   H5X50469   7.273   1.892   3.231  2.1025 -1.7690 -2.1318
  366DOPC   H5Y50470   7.332   1.724   3.244 -1.2491 -1.5617 -2.1670
  366DOPC   C3650471   7.251   1.806   3.427  0.3732 -0.1319 -0.4925
  366DOPC   H6X50472   7.163   1.865   3.460  0.7283  0.2450 -0.1959
  366DOPC   H6Y50473   7.237   1.702   3.463 -0.8750  0.1085 -0.2358
  366DOPC   C3750474   7.380   1.863   3.495 -0.0688 -0.3088 -0.2407
  366DOPC   H7X50475   7.461   1.790   3.473  0.5642  0.4764 -0.5796
  366DOPC   H7Y50476   7.401   1.965   3.454 -0.8413  0.7994  1.9649
  366DOPC   C3850477   7.372   1.867   3.648 -0.0504 -0.0051  0.1657
  366DOPC   H8X50478   7.346   1.766   3.686 -0.6231  0.5208  1.2421
  366DOPC   H8Y50479   7.289   1.939   3.666  1.3868  1.8835 -0.4674
  366DOPC   C3950480   7.501   1.909   3.704 -0.5240 -0.5860 -0.0285
  366DOPC   H9X50481   7.588   1.859   3.658 -1.1602 -1.0353 -0.7696
  366DOPC  C31050482   7.527   1.988   3.808  0.6463 -0.0317 -0.9531
  366DOPC  H10X50483   7.633   2.009   3.829  0.0740 -0.0980  2.7991
  366DOPC  C31150484   7.419   2.061   3.887  0.0580 -0.4486 -0.4884
  366DOPC  H11X50485   7.319   2.063   3.838 -0.1063 -1.2384 -0.1821
  366DOPC  H11Y50486   7.455   2.166   3.894 -0.7185 -0.2932  2.7282
  366DOPC  C31250487   7.397   2.017   4.034 -0.9446 -0.0821  0.2745
  366DOPC  H12X50488   7.496   2.017   4.084 -0.5501  2.2865 -0.3946
  366DOPC  H12Y50489   7.362   1.912   4.030 -1.1252  0.0155 -1.3961
  366DOPC  C31350490   7.297   2.114   4.112  0.1592  0.6310 -0.5811
  366DOPC  H13X50491   7.334   2.219   4.118  1.6678  0.1013 -0.1612
  366DOPC  H13Y50492   7.210   2.102   4.043 -0.8121  0.2093  0.6752
  366DOPC  C31450493   7.266   2.062   4.254  0.1515  0.2217  0.7734
  366DOPC  H14X50494   7.164   2.089   4.288 -0.6337  0.1665 -1.3864
  366DOPC  H14Y50495   7.259   1.952   4.239  2.0290  0.2889 -1.1022
  366DOPC  C31550496   7.374   2.106   4.355  0.7335 -0.7771  0.0118
  366DOPC  H15X50497   7.377   2.215   4.376 -1.0594 -0.9603  1.4903
  366DOPC  H15Y50498   7.470   2.079   4.305  0.8718  4.4053 -3.3668
  366DOPC  C31650499   7.378   2.027   4.486 -0.2374  0.2278  0.6268
  366DOPC  H16X50500   7.464   2.065   4.545 -0.8426 -1.3388  2.6742
  366DOPC  H16Y50501   7.286   2.059   4.539 -1.2302 -0.2766 -0.7578
  366DOPC  C31750502   7.385   1.879   4.466  0.6432  0.4270  0.0247
  366DOPC  H17X50503   7.286   1.843   4.432  0.8045 -0.0973  0.0984
  366DOPC  H17Y50504   7.456   1.843   4.388  1.2146 -4.6012  2.4745
  366DOPC  C31850505   7.435   1.808   4.590 -0.3312 -0.5731  0.4439
  366DOPC  H18X50506   7.361   1.732   4.623  1.0930 -2.7722 -1.1468
  366DOPC  H18Y50507   7.518   1.740   4.561  0.6831  0.2884  1.2507
  366DOPC  H18Z50508   7.462   1.878   4.672  2.0942 -1.7354  0.7418
  367DOPC     N50509   7.532   0.374   2.217  0.3583 -0.7937  0.0304
  367DOPC   C1250510   7.566   0.484   2.321  0.2770 -0.2513  0.3461
  367DOPC  H12A50511   7.489   0.560   2.322  0.8274  0.3329  2.0934
  367DOPC  H12B50512   7.660   0.529   2.293  1.5336 -1.3027  2.6527
  367DOPC   C1350513   7.390   0.325   2.249  0.0175 -0.6962  0.0393
  367DOPC  H13A50514   7.365   0.251   2.175 -0.3311 -1.2684  0.7127
  367DOPC  H13B50515   7.389   0.276   2.346  0.5027 -1.8329 -0.5107
  367DOPC  H13C50516   7.330   0.414   2.245 -1.3887 -1.6522 -1.0674
  367DOPC   C1450517   7.636   0.270   2.220 -0.0740  0.1168 -0.4924
  367DOPC  H14A50518   7.613   0.179   2.166 -0.3261  0.0842 -0.3297
  367DOPC  H14B50519   7.731   0.311   2.188  0.3981 -0.7153 -0.2042
  367DOPC  H14C50520   7.647   0.240   2.323  1.4535 -0.4462 -0.7796
  367DOPC   C1550521   7.520   0.429   2.082 -0.3414  0.0453  0.4823
  367DOPC  H15A50522   7.616   0.472   2.056  0.7446 -2.3389  0.3212
  367DOPC  H15B50523   7.454   0.514   2.067  1.0836  1.9049  3.6935
  367DOPC  H15C50524   7.504   0.348   2.013  0.9363 -0.2118  0.4644
  367DOPC   C1150525   7.578   0.434   2.467  0.5190 -0.4359  0.1572
  367DOPC  H11A50526   7.580   0.526   2.529 -1.1686 -0.4566  0.2977
  367DOPC  H11B50527   7.489   0.374   2.495  0.3300 -0.7281 -1.0369
  367DOPC     P50528   7.839   0.407   2.461 -0.5452 -0.4019  0.1570
  367DOPC   O1350529   7.829   0.541   2.393 -0.1547  0.1616 -0.7565
  367DOPC   O1450530   7.908   0.297   2.387 -0.2152  0.0079 -0.3726
  367DOPC   O1250531   7.691   0.351   2.492 -0.7537 -0.4689 -0.0866
  367DOPC   O1150532   7.893   0.427   2.609 -0.3376 -0.3608 -0.3573
  367DOPC    C150533   7.880   0.556   2.666  0.4289 -0.2941 -0.3147
  367DOPC    HA50534   7.788   0.612   2.638  0.9571  0.1648 -1.1856
  367DOPC    HB50535   7.965   0.621   2.635 -0.8222  0.8585 -1.4590
  367DOPC    C250536   7.879   0.546   2.825  0.1605 -0.1527  0.7137
  367DOPC    HS50537   7.901   0.650   2.856  1.0026 -0.5293  1.3996
  367DOPC   O2150538   7.985   0.456   2.878  0.4786 -0.4732  0.2741
  367DOPC   C2150539   8.106   0.503   2.860 -0.0953  1.1141  0.1251
  367DOPC   O2250540   8.135   0.613   2.826 -0.2124 -0.7406  0.0601
  367DOPC   C2250541   8.212   0.403   2.921  0.0225  0.1412 -0.0250
  367DOPC   H2R50542   8.266   0.350   2.840  0.3244 -0.0482  0.2930
  367DOPC   H2S50543   8.157   0.317   2.966 -3.6281  1.5347 -1.4635
  367DOPC    C350544   7.734   0.514   2.882 -0.5929  0.6288 -0.0630
  367DOPC    HX50545   7.702   0.419   2.834  0.1738  0.7168 -0.7872
  367DOPC    HY50546   7.670   0.599   2.850 -0.0590  1.0569 -0.0144
  367DOPC   O3150547   7.752   0.499   3.027 -0.5479 -0.2832  0.1109
  367DOPC   C3150548   7.645   0.439   3.067 -0.7486  0.2567 -0.1640
  367DOPC   O3250549   7.547   0.415   3.006  0.5942 -0.2400  0.2377
  367DOPC   C3250550   7.657   0.421   3.218 -0.1433  0.3823  0.2432
  367DOPC   H2X50551   7.744   0.357   3.246  1.5653  1.9766 -1.2046
  367DOPC   H2Y50552   7.665   0.523   3.261  2.5647  0.2921  0.1469
  367DOPC   C2350553   8.305   0.473   3.021 -0.2718  0.4087  0.7393
  367DOPC   H3R50554   8.343   0.567   2.976 -2.1193 -0.0830 -2.1442
  367DOPC   H3S50555   8.390   0.402   3.026 -2.7339 -2.6735  3.4097
  367DOPC   C2450556   8.237   0.495   3.154 -0.5493  0.2381 -0.0376
  367DOPC   H4R50557   8.215   0.395   3.198  1.5213 -1.0441 -1.7399
  367DOPC   H4S50558   8.142   0.554   3.149 -0.4477  1.0374  3.8571
  367DOPC   C2550559   8.332   0.551   3.265 -0.8779  0.5820  0.0172
  367DOPC   H5R50560   8.379   0.640   3.219 -2.7160  1.4130 -0.3436
  367DOPC   H5S50561   8.419   0.487   3.293 -0.1743  1.5908  0.1844
  367DOPC   C2650562   8.262   0.581   3.396  0.8452 -0.2084 -0.5383
  367DOPC   H6R50563   8.215   0.495   3.448  4.0458 -1.6911  0.1512
  367DOPC   H6S50564   8.186   0.662   3.395  1.4644  0.3850 -0.5688
  367DOPC   C2750565   8.369   0.616   3.497  0.4889  0.3074  0.0264
  367DOPC   H7R50566   8.433   0.697   3.455  0.3021  0.6433  0.3791
  367DOPC   H7S50567   8.431   0.529   3.526  2.1779  2.0412  1.9263
  367DOPC   C2850568   8.311   0.670   3.631 -0.4994 -1.1396 -0.4458
  367DOPC   H8R50569   8.233   0.597   3.661  0.4105 -2.0065 -0.1250
  367DOPC   H8S50570   8.259   0.765   3.605 -0.9658 -2.1184 -3.5677
  367DOPC   C2950571   8.426   0.693   3.729  0.0352  0.3343  0.6669
  367DOPC   H9R50572   8.470   0.794   3.728  1.4692 -0.2164 -2.4512
  367DOPC  C21050573   8.474   0.601   3.811 -0.2169  0.1478 -0.2945
  367DOPC  H10R50574   8.559   0.624   3.877  0.6089  0.2315 -1.3606
  367DOPC  C21150575   8.427   0.458   3.818 -0.2902 -0.7636  0.6572
  367DOPC  H11R50576   8.510   0.386   3.832  0.3864  0.1559  1.4843
  367DOPC  H11S50577   8.373   0.428   3.725 -1.5439  2.3623  0.2418
  367DOPC  C21250578   8.335   0.421   3.942 -0.0538  0.1237 -0.6038
  367DOPC  H12R50579   8.310   0.315   3.923 -1.2267  0.6320 -2.1248
  367DOPC  H12S50580   8.243   0.481   3.922 -0.3298 -0.8404 -2.4227
  367DOPC  C21350581   8.389   0.440   4.086  0.1595  0.4425  0.7750
  367DOPC  H13R50582   8.429   0.543   4.098  1.0752  0.1805  0.1070
  367DOPC  H13S50583   8.476   0.372   4.101  0.2462  0.3423 -0.1479
  367DOPC  C21450584   8.278   0.408   4.183 -0.5354  0.3014 -0.4126
  367DOPC  H14R50585   8.240   0.305   4.164 -1.9979  0.0968  2.9821
  367DOPC  H14S50586   8.197   0.481   4.161 -0.4259  0.7708  0.6792
  367DOPC  C21550587   8.329   0.407   4.327 -0.5852 -0.1120  0.7680
  367DOPC  H15R50588   8.427   0.354   4.328 -0.7685 -0.4450  1.2207
  367DOPC  H15S50589   8.268   0.344   4.394 -0.9736 -0.9730 -0.3588
  367DOPC  C21650590   8.334   0.544   4.389  0.7741 -0.3065 -0.0428
  367DOPC  H16R50591   8.228   0.575   4.374  1.7370  2.4164 -2.0163
  367DOPC  H16S50592   8.398   0.610   4.327 -1.0423  1.3154 -0.2910
  367DOPC  C21750593   8.384   0.545   4.534  0.0036  0.3032 -0.6436
  367DOPC  H17R50594   8.394   0.651   4.567  1.0980  0.0348 -0.0615
  367DOPC  H17S50595   8.486   0.503   4.546 -1.1048 -2.2265  0.6532
  367DOPC  C21850596   8.295   0.473   4.638  0.3268 -0.8654  0.0440
  367DOPC  H18R50597   8.285   0.536   4.729 -1.1351 -2.2047  0.8515
  367DOPC  H18S50598   8.358   0.387   4.668  0.8130  0.1105  1.9983
  367DOPC  H18T50599   8.195   0.452   4.595  0.5347 -1.7964 -0.0125
  367DOPC   C3350600   7.533   0.351   3.273 -0.4272  0.7734  0.0744
  367DOPC   H3X50601   7.534   0.249   3.228 -0.8917  0.4262  0.8231
  367DOPC   H3Y50602   7.441   0.391   3.224 -0.9360 -0.9613 -0.4740
  367DOPC   C3450603   7.518   0.347   3.423 -0.6843 -0.0753 -0.1540
  367DOPC   H4X50604   7.613   0.311   3.466 -1.0870  0.9465  1.7052
  367DOPC   H4Y50605   7.442   0.272   3.454  0.5712 -1.1273  0.4702
  367DOPC   C3550606   7.488   0.480   3.488 -0.7447  0.6643 -0.5637
  367DOPC   H5X50607   7.387   0.511   3.454 -0.8039  2.7129  1.2359
  367DOPC   H5Y50608   7.558   0.557   3.448  0.5610 -0.1031  0.1799
  367DOPC   C3650609   7.500   0.477   3.644 -0.2556  0.2206  1.0048
  367DOPC   H6X50610   7.420   0.409   3.679 -0.2326  0.3968  1.4037
  367DOPC   H6Y50611   7.604   0.443   3.666  0.2915 -0.4381 -2.1115
  367DOPC   C3750612   7.467   0.610   3.709  0.3662 -0.0052  0.3475
  367DOPC   H7X50613   7.551   0.680   3.693  1.9989 -1.7376  0.9057
  367DOPC   H7Y50614   7.370   0.646   3.668  1.4172  1.5875 -0.8474
  367DOPC   C3850615   7.454   0.594   3.862 -0.4390  0.7657 -0.3687
  367DOPC   H8X50616   7.556   0.560   3.888  0.1385  0.7756 -2.4304
  367DOPC   H8Y50617   7.401   0.499   3.885  2.1147 -0.9826 -1.3362
  367DOPC   C3950618   7.404   0.707   3.951 -0.6735  0.2286  0.7696
  367DOPC   H9X50619   7.329   0.772   3.902 -0.2867  1.9862  2.3771
  367DOPC  C31050620   7.438   0.743   4.078  0.4135  0.4570 -0.3000
  367DOPC  H10X50621   7.390   0.822   4.136  0.8760  1.6751 -1.5133
  367DOPC  C31150622   7.533   0.660   4.165  0.7921  0.0463  0.1234
  367DOPC  H11X50623   7.616   0.723   4.203  1.3313 -0.4057 -0.2813
  367DOPC  H11Y50624   7.585   0.582   4.105  1.0295 -1.6974  2.4654
  367DOPC  C31250625   7.463   0.586   4.279 -0.2924  0.3072 -0.3671
  367DOPC  H12X50626   7.536   0.512   4.319 -1.3237 -0.8232 -0.5235
  367DOPC  H12Y50627   7.382   0.523   4.236 -2.3774  2.6358 -0.0140
  367DOPC  C31350628   7.411   0.694   4.378 -0.4047  0.4373 -0.1769
  367DOPC  H13X50629   7.497   0.761   4.395 -0.5785  2.1835 -4.7071
  367DOPC  H13Y50630   7.340   0.755   4.318  1.9362  1.6645 -1.8618
  367DOPC  C31450631   7.355   0.625   4.499 -0.1933  1.0834 -0.4012
  367DOPC  H14X50632   7.289   0.545   4.458 -0.4103  2.1072 -2.1598
  367DOPC  H14Y50633   7.436   0.568   4.550 -1.9596 -1.3868 -0.1751
  367DOPC  C31550634   7.290   0.715   4.607 -0.4041  0.2051  0.3131
  367DOPC  H15X50635   7.216   0.784   4.561 -0.2314  0.8038  0.9180
  367DOPC  H15Y50636   7.377   0.769   4.650  1.4282 -2.5669  0.3168
  367DOPC  C31650637   7.226   0.631   4.715 -0.3591  0.0252  0.0876
  367DOPC  H16X50638   7.162   0.547   4.681 -1.6770  1.1423 -0.2374
  367DOPC  H16Y50639   7.306   0.583   4.775  1.3517  1.1023 -1.2226
  367DOPC  C31750640   7.149   0.716   4.810  0.1241  0.2607 -0.5947
  367DOPC  H17X50641   7.190   0.819   4.818  1.4552 -0.1112 -1.9832
  367DOPC  H17Y50642   7.044   0.728   4.778 -0.7969 -1.3803  1.5893
  367DOPC  C31850643   7.144   0.656   4.947 -0.0039  1.2249 -0.2337
  367DOPC  H18X50644   7.141   0.546   4.939  2.7809  1.0768 -0.3853
  367DOPC  H18Y50645   7.240   0.673   5.001 -0.3549 -0.0697  0.8370
  367DOPC  H18Z50646   7.064   0.699   5.011  1.0766  0.8800  1.3869
  368DOPC     N50647   5.320   4.318   1.853 -0.1651 -0.1018  0.7478
  368DOPC   C1250648   5.332   4.169   1.887  0.2435  0.2620 -0.0330
  368DOPC  H12A50649   5.233   4.127   1.894 -0.0210  0.7763 -0.5433
  368DOPC  H12B50650   5.368   4.166   1.989 -0.1314 -2.0442  0.0746
  368DOPC   C1350651   5.270   4.330   1.710 -0.3532 -0.3649 -0.3442
  368DOPC  H13A50652   5.181   4.271   1.699 -1.8230  1.6841 -0.0476
  368DOPC  H13B50653   5.242   4.433   1.689  2.7767  0.7313  0.2933
  368DOPC  H13C50654   5.352   4.306   1.644 -0.0222 -0.3635  0.0585
  368DOPC   C1450655   5.453   4.388   1.864  0.1246  0.4301 -0.0770
  368DOPC  H14A50656   5.493   4.392   1.965  0.7994 -2.0066 -0.2024
  368DOPC  H14B50657   5.523   4.320   1.818  0.9623  0.8173  0.5971
  368DOPC  H14C50658   5.451   4.491   1.830 -0.0616 -0.2850 -2.3511
  368DOPC   C1550659   5.228   4.386   1.953 -0.4281 -0.4028 -0.2104
  368DOPC  H15A50660   5.215   4.491   1.929 -1.2972 -0.3390  0.4902
  368DOPC  H15B50661   5.256   4.366   2.056  1.9264  0.5909 -0.5974
  368DOPC  H15C50662   5.132   4.337   1.945  0.1046 -1.4891 -0.0953
  368DOPC   C1150663   5.435   4.081   1.810 -0.3439 -0.4466 -0.3787
  368DOPC  H11A50664   5.409   3.977   1.839  1.8361 -1.3441 -1.4246
  368DOPC  H11B50665   5.433   4.100   1.701  1.7532  2.2811 -0.0609
  368DOPC     P50666   5.639   4.044   1.973  0.2287  0.3478 -0.3138
  368DOPC   O1350667   5.781   4.078   1.939 -0.7349  0.0199 -0.7261
  368DOPC   O1450668   5.610   3.902   1.988 -0.2777 -0.2512 -0.8070
  368DOPC   O1250669   5.565   4.112   1.849 -0.0416 -0.5014  0.2825
  368DOPC   O1150670   5.586   4.135   2.087  0.5727  0.0088 -0.1678
  368DOPC    C150671   5.682   4.164   2.191  0.0603 -0.2384  0.1046
  368DOPC    HA50672   5.644   4.256   2.241  0.0471  1.0956 -2.2296
  368DOPC    HB50673   5.784   4.191   2.156  0.3189  0.5479  1.3875
  368DOPC    C250674   5.705   4.059   2.301  0.4355  0.6194 -0.1061
  368DOPC    HS50675   5.765   3.979   2.253 -0.0827 -1.3490  2.2791
  368DOPC   O2150676   5.576   4.003   2.340  0.7625 -0.0652  0.0933
  368DOPC   C2150677   5.577   3.874   2.381  0.4445 -0.7697  0.4778
  368DOPC   O2250678   5.672   3.808   2.404 -0.0348  0.4185  0.2834
  368DOPC   C2250679   5.430   3.827   2.390 -0.2394 -0.2797  0.6887
  368DOPC   H2R50680   5.429   3.745   2.314 -0.0556  1.1142 -0.8913
  368DOPC   H2S50681   5.355   3.907   2.370  1.5217  1.6592  1.5131
  368DOPC    C350682   5.785   4.120   2.419  0.4005  0.1021  0.0690
  368DOPC    HX50683   5.719   4.205   2.447  0.6244  0.5902 -0.8555
  368DOPC    HY50684   5.884   4.152   2.378  0.7059 -0.6126  0.2458
  368DOPC   O3150685   5.800   4.028   2.531 -0.1928  0.3199 -0.3215
  368DOPC   C3150686   5.914   3.967   2.546  0.1427 -0.0995 -0.6645
  368DOPC   O3250687   6.016   3.980   2.480  0.4906 -0.2351 -0.6149
  368DOPC   C3250688   5.908   3.874   2.665 -0.2638 -0.0467 -0.1633
  368DOPC   H2X50689   5.818   3.902   2.724  0.7469 -1.0243  1.9684
  368DOPC   H2Y50690   5.890   3.770   2.631 -1.5824  0.7469 -2.0192
  368DOPC   C2350691   5.404   3.768   2.530 -0.1153  1.0176  0.1857
  368DOPC   H3R50692   5.471   3.682   2.552 -0.6355  0.0667 -1.7331
  368DOPC   H3S50693   5.307   3.714   2.524  0.9755 -1.3542  1.8727
  368DOPC   C2450694   5.384   3.860   2.648 -0.1560 -0.2287  0.2028
  368DOPC   H4R50695   5.290   3.917   2.637 -0.6903 -1.0523  0.3829
  368DOPC   H4S50696   5.465   3.936   2.651 -1.1269  0.8990 -1.0773
  368DOPC   C2550697   5.377   3.778   2.775 -0.4500 -0.2345  0.3147
  368DOPC   H5R50698   5.464   3.709   2.772  0.3962  0.8360 -1.8028
  368DOPC   H5S50699   5.288   3.713   2.763  0.1822 -0.8309 -1.3715
  368DOPC   C2650700   5.392   3.861   2.898 -0.6927  0.0388  0.0440
  368DOPC   H6R50701   5.492   3.903   2.921 -1.1324  0.3582  1.4722
  368DOPC   H6S50702   5.356   3.804   2.986 -0.8972 -2.1945 -1.4196
  368DOPC   C2750703   5.291   3.976   2.899 -0.2931 -0.6170 -0.3926
  368DOPC   H7R50704   5.188   3.939   2.885 -0.0442 -1.4412 -0.1034
  368DOPC   H7S50705   5.308   4.049   2.817 -1.7427 -0.0107 -0.1788
  368DOPC   C2850706   5.306   4.067   3.027 -0.4796 -0.5426  0.2345
  368DOPC   H8R50707   5.236   4.148   2.997 -0.3815  0.4307  2.4131
  368DOPC   H8S50708   5.411   4.102   3.038 -1.0395  1.1138  0.5789
  368DOPC   C2950709   5.253   3.987   3.146 -0.0962 -0.4006 -0.3044
  368DOPC   H9R50710   5.336   3.933   3.194  0.9463 -1.0734 -2.6780
  368DOPC  C21050711   5.132   3.992   3.205 -1.5457 -0.0269 -0.2641
  368DOPC  H10R50712   5.113   3.930   3.294 -1.4596 -1.5040 -1.2347
  368DOPC  C21150713   5.017   4.081   3.174  0.3348 -0.4067 -0.3585
  368DOPC  H11R50714   4.928   4.027   3.134 -0.4963  1.0794 -0.5626
  368DOPC  H11S50715   5.049   4.161   3.105 -0.7161  0.7879  0.4909
  368DOPC  C21250716   4.965   4.157   3.299 -0.0057  0.8827  0.3519
  368DOPC  H12R50717   4.900   4.244   3.273 -2.1033 -0.5891  0.4496
  368DOPC  H12S50718   5.053   4.197   3.354 -0.0075  2.3554 -0.6592
  368DOPC  C21350719   4.880   4.076   3.399  0.0034 -0.4005  0.8378
  368DOPC  H13R50720   4.919   3.975   3.422  2.5134  0.1134 -0.7056
  368DOPC  H13S50721   4.782   4.056   3.352  1.4566 -1.6774 -1.8845
  368DOPC  C21450722   4.861   4.152   3.530 -0.0493  0.0376  0.2094
  368DOPC  H14R50723   4.791   4.235   3.507 -1.2655 -1.2861 -1.0428
  368DOPC  H14S50724   4.961   4.184   3.566  0.5984 -2.5002  0.8905
  368DOPC  C21550725   4.803   4.064   3.647 -0.3245  0.4941 -0.6532
  368DOPC  H15R50726   4.879   3.995   3.688  1.5631  2.6067 -0.3795
  368DOPC  H15S50727   4.720   4.001   3.608 -1.5169  1.4027  0.3413
  368DOPC  C21650728   4.727   4.143   3.751 -1.1775 -0.0356  0.4094
  368DOPC  H16R50729   4.705   4.240   3.702  0.7386  0.6426  0.7773
  368DOPC  H16S50730   4.790   4.157   3.842 -0.8504  0.2268  0.1486
  368DOPC  C21750731   4.595   4.070   3.797  0.0754 -0.3986  0.1131
  368DOPC  H17R50732   4.537   4.044   3.706  3.2255 -2.6836 -1.4544
  368DOPC  H17S50733   4.538   4.141   3.861 -0.7131 -0.7812 -0.1427
  368DOPC  C21850734   4.631   3.942   3.876  0.6077  0.0837 -0.5188
  368DOPC  H18R50735   4.675   3.964   3.976  2.7174 -0.6485 -1.2302
  368DOPC  H18S50736   4.702   3.883   3.815 -0.2349 -0.1714 -1.2737
  368DOPC  H18T50737   4.543   3.875   3.888  0.9209 -0.2470 -0.0156
  368DOPC   C3350738   6.040   3.885   2.744 -0.0668 -0.2898 -0.1492
  368DOPC   H3X50739   6.061   3.988   2.780  0.5993  0.0111 -1.3343
  368DOPC   H3Y50740   6.115   3.845   2.672 -1.2204  0.3660 -1.7661
  368DOPC   C3450741   6.029   3.792   2.869  0.5960 -0.1431  0.1238
  368DOPC   H4X50742   6.015   3.687   2.834 -0.8275  0.0350  0.0842
  368DOPC   H4Y50743   5.941   3.824   2.928  0.7710 -1.2426  1.0136
  368DOPC   C3550744   6.160   3.787   2.953  0.4396 -0.4359 -0.2916
  368DOPC   H5X50745   6.186   3.889   2.987 -0.4397 -0.6589  1.1064
  368DOPC   H5Y50746   6.237   3.744   2.885  3.6629 -0.6618  3.2073
  368DOPC   C3650747   6.141   3.693   3.073 -0.0109 -0.0348 -0.5776
  368DOPC   H6X50748   6.059   3.722   3.142 -0.4445 -0.9146 -0.7103
  368DOPC   H6Y50749   6.112   3.593   3.034 -0.8735 -0.0453  0.0778
  368DOPC   C3750750   6.254   3.690   3.173 -0.5694  0.4989 -0.6038
  368DOPC   H7X50751   6.331   3.616   3.142 -0.5213 -1.0786  2.8769
  368DOPC   H7Y50752   6.300   3.792   3.170 -0.3760  0.4034 -2.8102
  368DOPC   C3850753   6.206   3.647   3.312  0.2409  0.0469 -0.0067
  368DOPC   H8X50754   6.131   3.566   3.301  0.3542 -0.2920  1.4758
  368DOPC   H8Y50755   6.144   3.731   3.351 -0.8362  1.3270 -4.0077
  368DOPC   C3950756   6.315   3.602   3.405 -0.0155 -0.2736  0.1967
  368DOPC   H9X50757   6.402   3.550   3.361  1.8935  1.1646  2.0786
  368DOPC  C31050758   6.323   3.628   3.535  0.0448 -0.3656 -0.0273
  368DOPC  H10X50759   6.410   3.591   3.591  1.0108 -1.5206 -2.2131
  368DOPC  C31150760   6.213   3.703   3.618 -0.1604  0.5988  0.8194
  368DOPC  H11X50761   6.196   3.651   3.715  1.3747 -1.1829  0.2037
  368DOPC  H11Y50762   6.114   3.695   3.568 -0.6987  2.0977  1.6059
  368DOPC  C31250763   6.244   3.858   3.615  0.2484 -0.0189  0.1342
  368DOPC  H12X50764   6.149   3.915   3.610  0.0595 -0.3922 -0.7137
  368DOPC  H12Y50765   6.292   3.888   3.519  1.5271  1.4078  1.1851
  368DOPC  C31350766   6.341   3.896   3.728 -0.1888 -0.1992 -0.6209
  368DOPC  H13X50767   6.288   3.877   3.824  2.5464 -0.6310  0.9046
  368DOPC  H13Y50768   6.433   3.833   3.726  0.3729  0.6152 -1.4503
  368DOPC  C31450769   6.381   4.047   3.740  0.5221  0.6369  0.4486
  368DOPC  H14X50770   6.467   4.066   3.672  1.4538 -1.4859  0.9526
  368DOPC  H14Y50771   6.293   4.110   3.716 -0.4704 -0.2779  1.5246
  368DOPC  C31550772   6.433   4.085   3.876  0.3467 -0.2990  0.1856
  368DOPC  H15X50773   6.520   4.019   3.896 -1.1380 -1.5022  3.3244
  368DOPC  H15Y50774   6.357   4.055   3.952  0.5991 -1.6567 -0.0665
  368DOPC  C31650775   6.452   4.232   3.902 -0.0452  0.2499  0.3356
  368DOPC  H16X50776   6.526   4.286   3.839  1.4979  0.5374  2.3062
  368DOPC  H16Y50777   6.354   4.282   3.885 -0.2282  0.0080  0.6659
  368DOPC  C31750778   6.492   4.259   4.048 -0.3912  0.4693  0.1592
  368DOPC  H17X50779   6.419   4.222   4.123  2.5646 -0.3619  2.8977
  368DOPC  H17Y50780   6.581   4.196   4.068 -0.5974  0.0787 -0.1417
  368DOPC  C31850781   6.532   4.405   4.085  0.6585  0.8400 -0.8999
  368DOPC  H18X50782   6.573   4.407   4.188 -0.7189 -1.1486 -0.2535
  368DOPC  H18Y50783   6.609   4.436   4.011  0.8410  0.6065 -0.8112
  368DOPC  H18Z50784   6.432   4.452   4.082  0.3038  0.0672 -3.1100
  369DOPC     N50785   4.505   2.149   2.174  0.1035  0.3649 -0.3424
  369DOPC   C1250786   4.394   2.141   2.279  0.2489 -0.0659  0.1612
  369DOPC  H12A50787   4.428   2.067   2.350 -1.8507  0.0365  1.3619
  369DOPC  H12B50788   4.304   2.101   2.235  0.4348 -0.9238  0.5422
  369DOPC   C1350789   4.455   2.229   2.056 -0.0274 -0.2783  0.1234
  369DOPC  H13A50790   4.367   2.192   2.005  0.4865  0.7357 -1.5578
  369DOPC  H13B50791   4.410   2.319   2.098 -2.7145 -1.1321 -0.7065
  369DOPC  H13C50792   4.542   2.245   1.994 -0.7366 -0.9221 -1.0731
  369DOPC   C1450793   4.531   2.013   2.124 -0.2920  1.3571  0.2350
  369DOPC  H14A50794   4.450   1.960   2.075  2.1805 -1.4388 -1.1475
  369DOPC  H14B50795   4.612   2.010   2.053 -0.6529 -1.1621 -0.1484
  369DOPC  H14C50796   4.546   1.944   2.205 -0.4760  1.3746  0.2854
  369DOPC   C1550797   4.638   2.193   2.229  0.3215 -0.2769  0.8563
  369DOPC  H15A50798   4.711   2.180   2.150 -1.2352  1.0310 -0.9009
  369DOPC  H15B50799   4.677   2.126   2.304  0.4127  2.2267  3.1757
  369DOPC  H15C50800   4.641   2.292   2.272  2.0282 -0.0450  0.2994
  369DOPC   C1150801   4.355   2.275   2.352 -0.4042  0.2203  1.0905
  369DOPC  H11A50802   4.282   2.253   2.433 -2.2655 -1.0434 -0.8174
  369DOPC  H11B50803   4.448   2.300   2.408 -0.0347  4.0585 -0.9143
  369DOPC     P50804   4.149   2.389   2.238  0.4944 -0.5739 -0.0350
  369DOPC   O1350805   4.096   2.249   2.224 -0.0917 -0.2349 -0.6699
  369DOPC   O1450806   4.126   2.484   2.131  0.0537 -0.2391  0.3813
  369DOPC   O1250807   4.305   2.379   2.266 -0.7732 -0.1754  0.1078
  369DOPC   O1150808   4.080   2.453   2.360 -0.2589 -0.4135  0.5583
  369DOPC    C150809   4.146   2.527   2.458  0.3605  0.3850  1.2932
  369DOPC    HA50810   4.257   2.530   2.447  0.1349 -0.0973 -2.2184
  369DOPC    HB50811   4.128   2.475   2.555 -0.4528  1.9934  2.0295
  369DOPC    C250812   4.087   2.661   2.476  0.2187 -0.5956 -0.0310
  369DOPC    HS50813   4.155   2.704   2.554  1.3997  0.2838 -1.4881
  369DOPC   O2150814   3.953   2.671   2.531 -0.1191 -0.1055  0.4725
  369DOPC   C2150815   3.926   2.618   2.644 -1.0780  0.3606  0.3967
  369DOPC   O2250816   4.005   2.578   2.724 -0.1075 -0.5370 -0.0803
  369DOPC   C2250817   3.769   2.636   2.661 -0.7111  0.7717 -0.1713
  369DOPC   H2R50818   3.715   2.608   2.568  1.8692  0.3618 -1.6711
  369DOPC   H2S50819   3.761   2.746   2.670 -2.0112  0.5878  1.1768
  369DOPC    C350820   4.099   2.746   2.346 -0.0957  0.1495 -0.3894
  369DOPC    HX50821   4.052   2.695   2.259 -0.8147 -1.3113  0.8000
  369DOPC    HY50822   4.207   2.761   2.325 -0.0395  0.2638 -0.0300
  369DOPC   O3150823   4.042   2.878   2.364 -0.5388 -0.2744 -0.4033
  369DOPC   C3150824   3.927   2.906   2.301  0.1575 -0.0668  0.0329
  369DOPC   O3250825   3.846   2.818   2.268  0.4894  0.2757  0.1146
  369DOPC   C3250826   3.900   3.058   2.303  0.3253  0.2350  0.4941
  369DOPC   H2X50827   3.793   3.061   2.273 -0.0502 -1.2025  1.5189
  369DOPC   H2Y50828   3.911   3.092   2.408  3.4973  1.4593 -0.1497
  369DOPC   C2350829   3.718   2.563   2.791 -0.1086  0.1719  0.7034
  369DOPC   H3R50830   3.613   2.596   2.810 -0.7276 -1.2781 -0.0704
  369DOPC   H3S50831   3.784   2.593   2.875  0.4048 -2.8282  1.4988
  369DOPC   C2450832   3.721   2.414   2.769 -0.3015 -0.1927  0.7203
  369DOPC   H4R50833   3.815   2.393   2.713 -0.1935  3.0187 -0.5447
  369DOPC   H4S50834   3.636   2.391   2.700  0.1663  0.7414 -0.2013
  369DOPC   C2550835   3.705   2.337   2.899 -0.2551  0.2410 -0.8654
  369DOPC   H5R50836   3.701   2.228   2.877  0.4633 -0.0832  0.4715
  369DOPC   H5S50837   3.603   2.354   2.939 -0.3338 -0.3935 -0.7862
  369DOPC   C2650838   3.810   2.365   3.005 -0.6678  0.4878 -0.2786
  369DOPC   H6R50839   3.805   2.468   3.045 -0.9422  0.2729  0.2639
  369DOPC   H6S50840   3.910   2.353   2.958 -1.3126 -1.2783 -1.3155
  369DOPC   C2750841   3.809   2.270   3.126  0.2206  0.2679  0.5446
  369DOPC   H7R50842   3.844   2.171   3.089  0.8771  0.9426 -0.6786
  369DOPC   H7S50843   3.703   2.255   3.155 -0.1099  0.6242 -0.4454
  369DOPC   C2850844   3.897   2.292   3.245  0.9954 -0.4085 -0.7821
  369DOPC   H8R50845   3.890   2.207   3.316 -0.6089 -0.0298 -0.4457
  369DOPC   H8S50846   3.864   2.382   3.302 -1.6493 -2.2334  0.7966
  369DOPC   C2950847   4.044   2.294   3.220  0.2389  0.2472  0.3704
  369DOPC   H9R50848   4.087   2.198   3.189 -0.1036  0.9436 -2.6043
  369DOPC  C21050849   4.129   2.392   3.236 -1.0260  0.2327  0.2453
  369DOPC  H10R50850   4.230   2.371   3.197 -0.1899  2.6802  0.9361
  369DOPC  C21150851   4.093   2.531   3.272  0.2518  0.1807  0.7515
  369DOPC  H11R50852   4.155   2.570   3.355 -1.4958 -0.4849  2.4476
  369DOPC  H11S50853   3.999   2.532   3.330 -0.6134 -0.7051 -0.5666
  369DOPC  C21250854   4.095   2.629   3.149 -0.2878 -0.6471  0.1944
  369DOPC  H12R50855   4.010   2.600   3.084 -0.3100  0.1351 -0.1319
  369DOPC  H12S50856   4.193   2.622   3.097  0.5002  1.0611  1.3576
  369DOPC  C21350857   4.072   2.780   3.188  0.3239  0.1388  0.2230
  369DOPC  H13R50858   4.136   2.807   3.274  0.4491  0.2335  0.1005
  369DOPC  H13S50859   3.963   2.791   3.207 -0.7476 -0.8267 -4.2439
  369DOPC  C21450860   4.111   2.874   3.078 -0.9148  0.0954 -0.0284
  369DOPC  H14R50861   4.203   2.842   3.024 -0.3388 -1.0164  1.5377
  369DOPC  H14S50862   4.132   2.972   3.124 -0.9093  1.0543 -1.9678
  369DOPC  C21550863   4.003   2.900   2.967  0.6328  0.1720  0.0337
  369DOPC  H15R50864   3.914   2.945   3.016  1.6800  2.3826  0.0154
  369DOPC  H15S50865   3.971   2.807   2.915  0.5626 -0.3074  0.9045
  369DOPC  C21650866   4.043   3.007   2.858  0.5992  0.6165  0.7273
  369DOPC  H16R50867   4.113   3.086   2.892  2.0942  0.1013 -0.9769
  369DOPC  H16S50868   3.947   3.049   2.822  0.0844 -0.7781  0.4108
  369DOPC  C21750869   4.120   2.944   2.737 -0.1625 -0.0161 -0.5798
  369DOPC  H17R50870   4.052   2.868   2.693  1.6723 -1.8460 -0.3751
  369DOPC  H17S50871   4.215   2.897   2.770 -0.7150 -0.2835  0.7132
  369DOPC  C21850872   4.157   3.041   2.631 -0.8262 -0.8374  0.0116
  369DOPC  H18R50873   4.188   2.997   2.534 -1.3951  1.2386 -1.1608
  369DOPC  H18S50874   4.241   3.104   2.668 -2.6811  0.2318  2.6856
  369DOPC  H18T50875   4.073   3.112   2.618 -1.1519 -1.1976  0.1147
  369DOPC   C3350876   3.994   3.137   2.214  0.1609 -0.1046  0.4239
  369DOPC   H3X50877   3.965   3.117   2.108  1.3089  5.8433 -1.3922
  369DOPC   H3Y50878   4.101   3.109   2.219  0.5404  0.3487 -2.8968
  369DOPC   C3450879   3.990   3.291   2.236 -0.4241 -0.6037 -0.3141
  369DOPC   H4X50880   3.892   3.322   2.196 -0.8159  0.0732  1.1379
  369DOPC   H4Y50881   4.074   3.342   2.184  0.1477 -0.4045  0.7804
  369DOPC   C3550882   4.009   3.324   2.386  0.2269 -0.3328  0.0468
  369DOPC   H5X50883   4.083   3.252   2.428 -0.1613 -0.6967  0.1273
  369DOPC   H5Y50884   3.913   3.297   2.435 -0.4339 -1.5721 -1.8160
  369DOPC   C3650885   4.034   3.473   2.419 -0.2457 -0.3680  0.5036
  369DOPC   H6X50886   4.037   3.482   2.529  1.8156  0.5067  0.4186
  369DOPC   H6Y50887   4.138   3.495   2.386 -1.1094 -0.6455 -2.8463
  369DOPC   C3750888   3.942   3.573   2.340 -0.0511  0.0569  0.3784
  369DOPC   H7X50889   3.970   3.577   2.232 -1.4159 -1.2421 -0.0547
  369DOPC   H7Y50890   3.841   3.527   2.333 -0.2340  0.1829  1.8554
  369DOPC   C3850891   3.943   3.705   2.420 -0.3783 -0.9239  0.4322
  369DOPC   H8X50892   4.048   3.742   2.419 -1.0497  1.1249 -0.3441
  369DOPC   H8Y50893   3.924   3.695   2.529 -1.9881 -0.9418  0.1749
  369DOPC   C3950894   3.858   3.820   2.361 -0.3953  0.3540 -0.4341
  369DOPC   H9X50895   3.893   3.857   2.263 -0.4498  1.2509 -0.1248
  369DOPC  C31050896   3.731   3.850   2.391  0.4851  1.3658 -0.2545
  369DOPC  H10X50897   3.679   3.920   2.324 -0.4257  0.9875  0.0277
  369DOPC  C31150898   3.640   3.774   2.482  0.2642  0.4208 -0.9668
  369DOPC  H11X50899   3.574   3.848   2.532 -2.9578 -2.1061 -1.2213
  369DOPC  H11Y50900   3.706   3.716   2.550  1.6856  0.5979 -2.1173
  369DOPC  C31250901   3.556   3.665   2.414 -0.9051  0.8154  0.0593
  369DOPC  H12X50902   3.612   3.582   2.366 -2.3876  0.4242 -1.0890
  369DOPC  H12Y50903   3.499   3.719   2.336 -2.3782 -1.2096 -0.3632
  369DOPC  C31350904   3.463   3.595   2.511  0.3403 -0.5271  0.4857
  369DOPC  H13X50905   3.517   3.529   2.582  0.9561  0.0156  0.5265
  369DOPC  H13Y50906   3.409   3.670   2.572  0.1594 -0.1210 -0.1553
  369DOPC  C31450907   3.360   3.516   2.435  0.0932  0.0708 -0.3648
  369DOPC  H14X50908   3.297   3.573   2.364 -0.7257 -1.3480 -0.8118
  369DOPC  H14Y50909   3.418   3.430   2.394 -0.1320 -1.8460  2.9654
  369DOPC  C31550910   3.262   3.451   2.536 -0.2557  0.3676 -0.3903
  369DOPC  H15X50911   3.189   3.528   2.569  0.2861  1.4224 -1.5435
  369DOPC  H15Y50912   3.322   3.400   2.614 -2.0569 -2.6485 -0.8449
  369DOPC  C31650913   3.178   3.340   2.473 -0.1956  0.0566  0.7657
  369DOPC  H16X50914   3.094   3.386   2.416 -0.4812 -0.8947  0.4004
  369DOPC  H16Y50915   3.239   3.292   2.394  1.1680  1.4176  0.9605
  369DOPC  C31750916   3.145   3.229   2.568  0.8803 -0.0528  0.1539
  369DOPC  H17X50917   3.238   3.172   2.589  2.2227  0.8650 -2.7845
  369DOPC  H17Y50918   3.112   3.279   2.662 -1.4508  0.7333 -1.0147
  369DOPC  C31850919   3.041   3.133   2.515  0.5602  0.6437 -0.0014
  369DOPC  H18X50920   3.023   3.054   2.591  0.5995  1.2992  0.6936
  369DOPC  H18Y50921   2.943   3.181   2.493  1.9583  2.9847 -1.5528
  369DOPC  H18Z50922   3.060   3.085   2.416  0.0092 -0.5782  0.4594
  370DOPC     N50923   2.915  10.559   1.819 -0.2837  0.4036 -0.5118
  370DOPC   C1250924   2.775  10.599   1.859 -1.0867 -0.2019  0.7346
  370DOPC  H12A50925   2.728  10.507   1.892 -1.3926 -1.0084 -1.7658
  370DOPC  H12B50926   2.718  10.623   1.771 -0.6184  0.9764  0.7351
  370DOPC   C1350927   2.964  10.662   1.720 -0.7048  0.1908 -0.0757
  370DOPC  H13A50928   3.059  10.632   1.678 -0.0470 -0.6652  1.9178
  370DOPC  H13B50929   2.899  10.682   1.636 -0.3219  0.3342 -0.3420
  370DOPC  H13C50930   2.982  10.756   1.770 -1.7859 -0.0486  0.7928
  370DOPC   C1450931   2.923  10.425   1.755 -0.0798  0.8057 -0.2632
  370DOPC  H14A50932   2.871  10.420   1.660  2.5317 -2.5096 -1.7210
  370DOPC  H14B50933   3.021  10.397   1.722 -0.4852  0.0181 -0.8443
  370DOPC  H14C50934   2.894  10.346   1.823 -3.7123  1.6111 -0.6442
  370DOPC   C1550935   3.008  10.552   1.937  0.1562 -0.2182  0.0194
  370DOPC  H15A50936   3.094  10.492   1.911  2.3236  2.7634 -0.2299
  370DOPC  H15B50937   2.959  10.509   2.023  0.9243 -1.0521  0.0495
  370DOPC  H15C50938   3.049  10.652   1.943  0.0113 -0.1941  0.6942
  370DOPC   C1150939   2.770  10.711   1.971  0.0381 -0.0831  0.7683
  370DOPC  H11A50940   2.808  10.661   2.062 -0.1343  2.0967  2.1131
  370DOPC  H11B50941   2.839  10.796   1.955 -1.7063  0.8915 -2.3861
  370DOPC     P50942   2.543  10.688   2.088  0.7576 -0.1355  0.1577
  370DOPC   O1350943   2.567  10.542   2.074  0.3411  0.6020  0.2876
  370DOPC   O1450944   2.405  10.742   2.054  0.0056  0.3769 -1.0264
  370DOPC   O1250945   2.634  10.757   1.979 -0.3710  0.4578  0.1443
  370DOPC   O1150946   2.594  10.739   2.228 -0.0791  0.4751  0.6400
  370DOPC    C150947   2.659  10.862   2.235  0.2062  0.0996 -0.1753
  370DOPC    HA50948   2.637  10.932   2.151 -1.0802  0.4910  0.4467
  370DOPC    HB50949   2.768  10.845   2.235  0.3223  0.7673 -0.7870
  370DOPC    C250950   2.626  10.923   2.378  0.4041  0.0758 -0.2503
  370DOPC    HS50951   2.699  11.006   2.392  0.2542  0.4824 -1.6685
  370DOPC   O2150952   2.650  10.822   2.474  0.1761  0.2125 -0.1541
  370DOPC   C2150953   2.775  10.802   2.502 -0.3613  0.2226  0.1270
  370DOPC   O2250954   2.866  10.875   2.475 -0.2146  0.3718  0.1331
  370DOPC   C2250955   2.797  10.672   2.570  0.0337  0.2208 -0.3210
  370DOPC   H2R50956   2.903  10.642   2.555  0.0479 -0.5485  1.1778
  370DOPC   H2S50957   2.751  10.584   2.521  0.9044 -0.4377  0.0192
  370DOPC    C350958   2.478  10.976   2.393  0.0063  0.3225 -0.1599
  370DOPC    HX50959   2.404  10.894   2.403 -0.0631  0.2980 -0.8061
  370DOPC    HY50960   2.451  11.032   2.301  0.5570  1.9398  0.6165
  370DOPC   O3150961   2.454  11.058   2.512 -0.3767 -0.2701  0.3478
  370DOPC   C3150962   2.503  11.182   2.512 -0.0533  0.1839  0.1817
  370DOPC   O3250963   2.561  11.239   2.421  0.0307  0.5344  0.2950
  370DOPC   C3250964   2.466  11.247   2.645  0.2087  0.0645 -0.1283
  370DOPC   H2X50965   2.536  11.333   2.639  1.3521 -0.8503 -0.0557
  370DOPC   H2Y50966   2.361  11.283   2.646  0.1079 -0.2307  0.1847
  370DOPC   C2350967   2.756  10.683   2.719 -0.6816 -0.6753  0.1173
  370DOPC   H3R50968   2.792  10.592   2.771  1.7389  1.3836  2.3169
  370DOPC   H3S50969   2.646  10.676   2.727 -0.8063  0.4250 -0.4094
  370DOPC   C2450970   2.817  10.812   2.786 -0.0585 -0.0929  0.5598
  370DOPC   H4R50971   2.752  10.900   2.766 -1.8764 -1.2645  1.0160
  370DOPC   H4S50972   2.915  10.839   2.741  0.1035 -1.9932 -0.3405
  370DOPC   C2550973   2.835  10.809   2.935 -0.5424  0.1529  0.2806
  370DOPC   H5R50974   2.882  10.907   2.962 -1.7645  1.4459 -2.0063
  370DOPC   H5S50975   2.893  10.725   2.980 -0.5914  2.0246  4.3126
  370DOPC   C2650976   2.697  10.799   3.014  0.1790 -0.3320 -0.0957
  370DOPC   H6R50977   2.661  10.696   3.033 -1.2311 -0.4898 -3.0492
  370DOPC   H6S50978   2.626  10.849   2.944  0.0438 -1.1824 -0.5821
  370DOPC   C2750979   2.687  10.872   3.153  0.1263 -0.3007 -0.7255
  370DOPC   H7R50980   2.592  10.858   3.210  0.8573  1.5503  1.0699
  370DOPC   H7S50981   2.699  10.982   3.136 -0.5080 -0.0943  0.0693
  370DOPC   C2850982   2.795  10.824   3.251  0.3129 -0.1308 -0.6392
  370DOPC   H8R50983   2.792  10.903   3.328 -1.6208  0.2875 -1.0883
  370DOPC   H8S50984   2.898  10.818   3.208  1.0865 -2.3382  1.3360
  370DOPC   C2950985   2.766  10.699   3.320  0.0590 -0.5024  0.2955
  370DOPC   H9R50986   2.697  10.636   3.262 -0.6739 -0.2741  0.9090
  370DOPC  C21050987   2.800  10.652   3.442 -0.2984 -0.0962 -0.5724
  370DOPC  H10R50988   2.786  10.543   3.448  0.5687 -0.1425  0.9547
  370DOPC  C21150989   2.886  10.706   3.554  0.5609 -0.1949  0.4518
  370DOPC  H11R50990   2.829  10.768   3.626 -0.6118  0.2830 -0.8338
  370DOPC  H11S50991   2.968  10.767   3.511 -0.8284 -0.6930 -3.3375
  370DOPC  C21250992   2.939  10.595   3.641 -0.1198  0.5744 -0.0601
  370DOPC  H12R50993   3.010  10.535   3.581  0.8178  0.9727  0.6263
  370DOPC  H12S50994   2.859  10.524   3.674 -0.5494 -0.3955 -2.9142
  370DOPC  C21350995   3.029  10.629   3.764 -0.2966 -0.9060  0.0554
  370DOPC  H13R50996   2.972  10.707   3.821  1.0183  0.5058 -0.5065
  370DOPC  H13S50997   3.127  10.671   3.736 -0.5661 -0.1858  0.1726
  370DOPC  C21450998   3.051  10.509   3.860  0.8498 -0.8785 -0.1689
  370DOPC  H14R50999   3.135  10.448   3.819  0.3814 -1.9121  0.3564
  370DOPC  H14S51000   2.962  10.441   3.864  0.6084 -0.5776 -0.4157
  370DOPC  C21551001   3.086  10.557   3.992  0.2280 -1.2093 -0.1232
  370DOPC  H15R51002   3.105  10.467   4.055 -0.0456 -0.9491  0.3348
  370DOPC  H15S51003   3.003  10.619   4.032  0.4214 -1.0394  0.0171
  370DOPC  C21651004   3.207  10.652   3.987  0.1817  0.2847  0.3883
  370DOPC  H16R51005   3.182  10.748   3.936 -0.7807  0.6337  1.4737
  370DOPC  H16S51006   3.285  10.607   3.922 -1.2204 -1.6227 -0.0540
  370DOPC  C21751007   3.283  10.683   4.120  0.6684  0.1884 -0.5730
  370DOPC  H17R51008   3.329  10.584   4.146  0.9233  0.5499  0.4093
  370DOPC  H17S51009   3.214  10.725   4.196  0.2952  1.1280 -1.4208
  370DOPC  C21851010   3.378  10.792   4.098  0.0242  0.1969  0.5986
  370DOPC  H18R51011   3.462  10.767   4.029  0.4085  1.3973  0.6013
  370DOPC  H18S51012   3.432  10.822   4.190 -0.4769 -0.1236  1.0033
  370DOPC  H18T51013   3.327  10.883   4.061 -0.7723 -1.2480 -2.1534
  370DOPC   C3351014   2.502  11.170   2.778  0.5038  0.4086  0.0629
  370DOPC   H3X51015   2.608  11.138   2.776  0.3322 -0.6988  3.0650
  370DOPC   H3Y51016   2.444  11.075   2.785  0.2763  0.4690 -0.9608
  370DOPC   C3451017   2.456  11.243   2.903 -0.3791  0.0656 -0.0928
  370DOPC   H4X51018   2.350  11.270   2.889 -0.6893 -1.1430 -0.1787
  370DOPC   H4Y51019   2.512  11.338   2.910 -1.8586  1.0417 -1.1128
  370DOPC   C3551020   2.481  11.166   3.028  0.0897  0.4587 -0.1558
  370DOPC   H5X51021   2.586  11.130   3.031  0.4598  1.5387  1.8461
  370DOPC   H5Y51022   2.442  11.063   3.016  4.1979 -1.3006 -0.0541
  370DOPC   C3651023   2.448  11.242   3.160 -0.2224 -0.0671  1.1644
  370DOPC   H6X51024   2.491  11.344   3.161  1.4954 -0.6152 -2.1404
  370DOPC   H6Y51025   2.338  11.249   3.176  0.1107 -0.8699  4.5731
  370DOPC   C3751026   2.511  11.192   3.289  0.2538  0.2683 -0.1038
  370DOPC   H7X51027   2.471  11.090   3.309  0.7002 -0.1050 -1.0517
  370DOPC   H7Y51028   2.619  11.174   3.267  0.3483 -0.1794  0.6622
  370DOPC   C3851029   2.481  11.277   3.417  0.8298  0.2439  0.2241
  370DOPC   H8X51030   2.374  11.265   3.446  0.0031 -0.4460 -2.7541
  370DOPC   H8Y51031   2.481  11.384   3.387 -1.8265 -0.1999 -1.7407
  370DOPC   C3951032   2.569  11.250   3.534 -0.1408 -0.5970  0.0677
  370DOPC   H9X51033   2.665  11.303   3.539 -0.7403  0.5317  0.0040
  370DOPC  C31051034   2.537  11.183   3.645  0.3383  1.0459 -0.4084
  370DOPC  H10X51035   2.615  11.169   3.721  0.5949 -0.1896 -0.8724
  370DOPC  C31151036   2.394  11.144   3.685 -0.1678 -0.1324 -0.1770
  370DOPC  H11X51037   2.390  11.071   3.768 -1.1784  1.4687  1.2320
  370DOPC  H11Y51038   2.341  11.084   3.607 -1.9305  0.9143  0.1802
  370DOPC  C31251039   2.302  11.265   3.717  0.8179 -0.0811  0.5312
  370DOPC  H12X51040   2.273  11.316   3.623 -1.0587 -1.2085  0.4471
  370DOPC  H12Y51041   2.353  11.337   3.785  1.7049  0.6773 -0.8783
  370DOPC  C31351042   2.169  11.214   3.783 -1.0286  0.2461  0.0119
  370DOPC  H13X51043   2.115  11.138   3.723 -1.4951  1.6963 -1.4985
  370DOPC  H13Y51044   2.194  11.166   3.880  0.8379 -2.1674 -1.5564
  370DOPC  C31451045   2.072  11.332   3.808  0.2627  1.1801 -0.1753
  370DOPC  H14X51046   2.115  11.399   3.886  1.3501 -2.6333  2.7887
  370DOPC  H14Y51047   2.059  11.380   3.709 -3.0618 -2.6509 -1.8941
  370DOPC  C31551048   1.930  11.290   3.850  1.1752  0.1655 -0.0443
  370DOPC  H15X51049   1.878  11.239   3.765  0.2028 -1.8904  1.6852
  370DOPC  H15Y51050   1.868  11.381   3.864 -2.3457 -1.8640 -1.1049
  370DOPC  C31651051   1.930  11.183   3.965 -0.3847 -0.4921 -0.1015
  370DOPC  H16X51052   1.824  11.155   3.981 -0.8950  0.4085 -1.7187
  370DOPC  H16Y51053   1.986  11.096   3.923  0.2703  1.0925 -2.7452
  370DOPC  C31751054   2.005  11.222   4.105 -0.0455 -0.8177  0.1002
  370DOPC  H17X51055   1.999  11.139   4.178  1.2320 -1.2603 -0.2790
  370DOPC  H17Y51056   2.113  11.228   4.079 -0.5883 -1.3487 -2.5987
  370DOPC  C31851057   1.966  11.360   4.167 -0.2689  0.2739  0.5002
  370DOPC  H18X51058   2.014  11.365   4.268  2.7060  0.4236 -0.7985
  370DOPC  H18Y51059   1.993  11.443   4.098 -0.1022  0.2261  0.5065
  370DOPC  H18Z51060   1.856  11.363   4.177 -0.2789  0.3893  0.3518
  371DOPC     N51061   0.990   1.609   1.716 -0.3800 -0.3302  0.6173
  371DOPC   C1251062   0.969   1.592   1.862 -0.0259  0.1986 -0.0424
  371DOPC  H12A51063   1.065   1.588   1.912 -0.5298  2.5125  1.2212
  371DOPC  H12B51064   0.927   1.494   1.882  0.9197 -0.0601  0.7787
  371DOPC   C1351065   1.001   1.752   1.685 -0.2944 -0.4196  0.3554
  371DOPC  H13A51066   0.994   1.779   1.580  0.2794 -0.7272  0.2341
  371DOPC  H13B51067   0.923   1.808   1.734  0.2198  0.9893 -0.3769
  371DOPC  H13C51068   1.099   1.785   1.714  0.8718 -1.4545 -2.1326
  371DOPC   C1451069   0.871   1.547   1.644  0.0109 -0.4523  0.2001
  371DOPC  H14A51070   0.784   1.602   1.678  0.1589  0.1709 -0.3982
  371DOPC  H14B51071   0.874   1.539   1.536  0.1618 -0.7159  0.2224
  371DOPC  H14C51072   0.850   1.450   1.686  1.8338 -0.8611  0.2327
  371DOPC   C1551073   1.100   1.525   1.675 -1.2041 -0.6895  0.4313
  371DOPC  H15A51074   1.190   1.569   1.713 -0.1409 -1.8526 -0.6633
  371DOPC  H15B51075   1.117   1.504   1.570 -2.1062 -1.5490  0.4434
  371DOPC  H15C51076   1.098   1.425   1.715  2.7438 -0.9975  0.1789
  371DOPC   C1151077   0.878   1.699   1.936 -0.6679 -0.3285 -0.3028
  371DOPC  H11A51078   0.839   1.664   2.034 -2.3497 -1.4798 -1.3328
  371DOPC  H11B51079   0.946   1.785   1.951 -0.5882 -0.4467  0.0249
  371DOPC     P51080   0.619   1.736   1.886 -0.2749  0.3748 -0.0932
  371DOPC   O1351081   0.589   1.606   1.949  0.2684  0.1639  0.1363
  371DOPC   O1451082   0.548   1.771   1.762 -0.2551  0.4783  0.4715
  371DOPC   O1251083   0.770   1.745   1.855  0.5208 -0.3368  0.1570
  371DOPC   O1151084   0.602   1.851   1.988  0.0266  0.0193 -0.4435
  371DOPC    C151085   0.668   1.979   1.994  0.4579 -0.2696 -0.4184
  371DOPC    HA51086   0.634   2.042   1.910  4.0657  2.0368 -0.3535
  371DOPC    HB51087   0.778   1.968   1.985  0.5463  0.0704  0.1890
  371DOPC    C251088   0.622   2.053   2.125 -0.6652 -0.2944  0.4046
  371DOPC    HS51089   0.654   1.984   2.206 -0.2055  1.5233  1.8269
  371DOPC   O2151090   0.476   2.069   2.124 -0.2655  0.4584 -0.1653
  371DOPC   C2151091   0.410   1.979   2.188 -0.6038 -0.1619 -0.5799
  371DOPC   O2251092   0.454   1.891   2.262 -0.4380 -0.8181 -0.3933
  371DOPC   C2251093   0.265   2.002   2.150 -0.6322 -0.4409 -0.6191
  371DOPC   H2R51094   0.208   1.907   2.148 -0.2430 -0.6690 -1.1455
  371DOPC   H2S51095   0.263   2.056   2.053  0.7797 -1.1045 -1.0479
  371DOPC    C351096   0.682   2.194   2.136 -0.4136 -0.3119 -0.2438
  371DOPC    HX51097   0.647   2.261   2.055  0.7997 -1.2383 -1.5786
  371DOPC    HY51098   0.790   2.188   2.114 -0.1257 -3.1194  1.4438
  371DOPC   O3151099   0.661   2.249   2.268  0.3810 -0.4452 -0.0120
  371DOPC   C3151100   0.552   2.327   2.286 -0.0572  0.0505 -0.1061
  371DOPC   O3251101   0.466   2.353   2.207 -0.3837 -0.5289  0.2398
  371DOPC   C3251102   0.549   2.371   2.439 -0.6852  0.6327  0.4664
  371DOPC   H2X51103   0.580   2.281   2.496 -1.3001 -0.3116 -0.6354
  371DOPC   H2Y51104   0.632   2.442   2.459  0.6637 -1.0951  1.1416
  371DOPC   C2351105   0.191   2.102   2.242  0.1552  0.5777  1.1913
  371DOPC   H3R51106   0.083   2.084   2.219  0.6138  0.9961 -1.6937
  371DOPC   H3S51107   0.212   2.204   2.206 -1.0209  0.5520  0.3542
  371DOPC   C2451108   0.208   2.066   2.384 -0.1065  0.7208 -0.8378
  371DOPC   H4R51109   0.308   2.104   2.414 -0.3162  0.9935 -0.4684
  371DOPC   H4S51110   0.213   1.957   2.405 -1.0162  0.9476  0.7441
  371DOPC   C2551111   0.104   2.143   2.474  0.0472 -0.1209  0.8349
  371DOPC   H5R51112   0.000   2.104   2.470 -0.4642  1.2162  0.2816
  371DOPC   H5S51113   0.097   2.249   2.439  1.8754  1.0901  3.7776
  371DOPC   C2651114   0.144   2.144   2.614  0.1416 -0.3576 -0.3105
  371DOPC   H6R51115   0.246   2.189   2.616  0.2129 -0.5392  0.9828
  371DOPC   H6S51116   0.156   2.036   2.638  0.6862 -0.6832 -1.9011
  371DOPC   C2751117   0.040   2.198   2.704 -0.0276 -1.0984  0.1955
  371DOPC   H7R51118  -0.061   2.161   2.679 -1.7539  2.4149  1.2677
  371DOPC   H7S51119   0.035   2.309   2.699 -1.1825 -1.1481  0.0807
  371DOPC   C2851120   0.052   2.158   2.850 -1.0130 -0.4381 -0.8054
  371DOPC   H8R51121   0.151   2.182   2.894 -1.4754 -1.1944  0.7213
  371DOPC   H8S51122   0.050   2.047   2.850 -0.5064 -0.4482 -1.0827
  371DOPC   C2951123  -0.057   2.209   2.939 -0.6423 -0.4530  0.5473
  371DOPC   H9R51124  -0.117   2.297   2.909 -0.5579  0.5115  2.9722
  371DOPC  C21051125  -0.074   2.147   3.058  0.0392  0.8952 -0.1748
  371DOPC  H10R51126  -0.153   2.181   3.127 -2.1302 -0.6745 -1.7738
  371DOPC  C21151127   0.013   2.044   3.118 -0.2839  0.1087 -0.0825
  371DOPC  H11R51128   0.103   2.028   3.055 -1.4945 -1.8509 -1.4429
  371DOPC  H11S51129  -0.041   1.947   3.112  1.7756 -1.1123 -0.0099
  371DOPC  C21251130   0.047   2.064   3.265  0.1456  0.3557 -0.0545
  371DOPC  H12R51131   0.078   2.169   3.285  0.4179  0.0432  1.2754
  371DOPC  H12S51132   0.139   2.009   3.292  0.4337  0.5326 -0.6704
  371DOPC  C21351133  -0.066   2.032   3.361  0.4106  0.0765 -0.5144
  371DOPC  H13R51134  -0.101   1.928   3.341  0.7691 -0.3340  0.8746
  371DOPC  H13S51135  -0.152   2.101   3.361  0.1379 -0.2590  0.2218
  371DOPC  C21451136  -0.016   2.022   3.508 -0.2301  1.0366  0.4314
  371DOPC  H14R51137   0.059   1.940   3.517 -1.6509 -0.3806 -0.2596
  371DOPC  H14S51138  -0.109   1.991   3.560 -1.1155 -0.0397 -1.6841
  371DOPC  C21551139   0.028   2.155   3.566  0.1199 -0.9323  0.0692
  371DOPC  H15R51140  -0.012   2.163   3.669  0.6980 -3.8119  0.5854
  371DOPC  H15S51141  -0.011   2.242   3.508  1.0088 -1.6007 -1.6191
  371DOPC  C21651142   0.181   2.177   3.579 -0.3636  0.0227  0.0263
  371DOPC  H16R51143   0.197   2.261   3.650  0.1734  1.5503 -1.8157
  371DOPC  H16S51144   0.233   2.206   3.484  2.8241 -5.8837 -0.5074
  371DOPC  C21751145   0.268   2.054   3.639  0.7526 -0.8378  0.0290
  371DOPC  H17R51146   0.290   1.986   3.554  3.7893  1.1878 -0.9600
  371DOPC  H17S51147   0.204   1.993   3.707 -1.5737 -0.8039 -1.9645
  371DOPC  C21851148   0.394   2.099   3.710 -0.4874 -0.4842 -0.4909
  371DOPC  H18R51149   0.454   2.171   3.651 -0.1593 -2.0023 -2.0651
  371DOPC  H18S51150   0.453   2.005   3.712  0.7169  0.2479 -0.9357
  371DOPC  H18T51151   0.378   2.129   3.816  2.3596 -1.0771  0.1889
  371DOPC   C3351152   0.410   2.423   2.477  0.3633 -0.4398 -0.0048
  371DOPC   H3X51153   0.330   2.359   2.433  0.6276 -0.7299 -0.0701
  371DOPC   H3Y51154   0.397   2.521   2.428 -0.7046 -0.2616  0.6137
  371DOPC   C3451155   0.376   2.422   2.628 -0.2400  0.4608  0.0809
  371DOPC   H4X51156   0.391   2.318   2.667  1.7350  1.2072  1.4885
  371DOPC   H4Y51157   0.268   2.449   2.632  0.0069  1.5944 -0.5819
  371DOPC   C3551158   0.465   2.524   2.696 -0.8489 -0.0911  0.0045
  371DOPC   H5X51159   0.488   2.607   2.625  2.0930  2.0222  3.1033
  371DOPC   H5Y51160   0.560   2.469   2.714 -1.0961  0.3057  3.1428
  371DOPC   C3651161   0.411   2.581   2.829 -0.5795  0.3399  0.2488
  371DOPC   H6X51162   0.324   2.646   2.805 -0.8524  0.2819  1.0484
  371DOPC   H6Y51163   0.376   2.494   2.889 -1.5384  2.3940  2.8535
  371DOPC   C3751164   0.505   2.666   2.914  0.1277 -0.8400  1.1102
  371DOPC   H7X51165   0.609   2.632   2.898  0.8481  1.2800  0.8841
  371DOPC   H7Y51166   0.505   2.758   2.852 -1.7182 -0.1631  2.0245
  371DOPC   C3851167   0.455   2.699   3.056 -0.1323  0.5814 -0.3906
  371DOPC   H8X51168   0.466   2.608   3.118 -2.2173 -1.3422 -2.6769
  371DOPC   H8Y51169   0.346   2.715   3.044  0.1161  0.8528 -2.6163
  371DOPC   C3951170   0.522   2.809   3.133  0.6863 -0.4725  0.1887
  371DOPC   H9X51171   0.539   2.900   3.074 -1.0377  1.2381  2.1557
  371DOPC  C31051172   0.558   2.813   3.266  0.0557  0.2499 -0.1514
  371DOPC  H10X51173   0.597   2.905   3.312 -0.5504  0.4429 -0.0130
  371DOPC  C31151174   0.547   2.699   3.359 -0.2680  0.6267 -0.2707
  371DOPC  H11X51175   0.645   2.647   3.367 -0.3335  0.6342  0.6421
  371DOPC  H11Y51176   0.475   2.622   3.325  0.6237 -1.1584  1.6589
  371DOPC  C31251177   0.500   2.741   3.495  0.0667  0.3501  0.2378
  371DOPC  H12X51178   0.403   2.795   3.490 -0.4070 -0.3987  1.1073
  371DOPC  H12Y51179   0.580   2.806   3.539  0.0545  0.5220  0.0087
  371DOPC  C31351180   0.488   2.616   3.582  0.1525  0.3036 -0.4289
  371DOPC  H13X51181   0.425   2.539   3.532  1.6624  0.1361 -2.2095
  371DOPC  H13Y51182   0.588   2.574   3.603  0.4803  0.8320 -0.8954
  371DOPC  C31451183   0.426   2.651   3.717 -0.1741  0.0716 -0.3556
  371DOPC  H14X51184   0.499   2.709   3.778  1.1309 -1.5864 -0.2758
  371DOPC  H14Y51185   0.343   2.720   3.692 -0.4930 -0.0471  0.3301
  371DOPC  C31551186   0.370   2.540   3.801  0.0026  0.2585 -0.1462
  371DOPC  H15X51187   0.454   2.469   3.812  0.7414  1.0785 -0.3478
  371DOPC  H15Y51188   0.287   2.493   3.744  0.9436 -0.3802 -1.0162
  371DOPC  C31651189   0.316   2.573   3.937 -0.7250  0.4571 -0.7244
  371DOPC  H16X51190   0.396   2.612   4.004 -0.7289 -0.3404 -0.2367
  371DOPC  H16Y51191   0.257   2.664   3.914 -1.0699  0.6162  0.7093
  371DOPC  C31751192   0.220   2.464   4.009 -1.1409 -0.0468  0.7962
  371DOPC  H17X51193   0.159   2.522   4.082 -1.6268  2.1180 -1.1779
  371DOPC  H17Y51194   0.158   2.422   3.927 -1.1986  0.6193  0.4920
  371DOPC  C31851195   0.299   2.350   4.079 -0.7029 -0.0915  0.1915
  371DOPC  H18X51196   0.235   2.265   4.112 -3.0523  2.4990  2.8931
  371DOPC  H18Y51197   0.382   2.322   4.010 -0.3498  3.2953 -0.9288
  371DOPC  H18Z51198   0.345   2.374   4.177  1.1153 -3.6888  0.4282
  372DOPC     N51199   2.216   1.856   1.828 -0.2217  0.3233 -0.1690
  372DOPC   C1251200   2.175   1.976   1.911  0.1800 -0.4835 -0.2831
  372DOPC  H12A51201   2.069   1.992   1.902  0.1322 -1.2604 -1.4302
  372DOPC  H12B51202   2.227   2.064   1.876  0.8881 -0.3350  1.0938
  372DOPC   C1351203   2.143   1.737   1.879 -0.3478  0.3722 -0.0976
  372DOPC  H13A51204   2.166   1.647   1.824  1.7568  1.1827 -0.6291
  372DOPC  H13B51205   2.171   1.727   1.983 -0.2987 -0.1095 -0.1576
  372DOPC  H13C51206   2.036   1.750   1.867 -0.3611  0.4387  0.0985
  372DOPC   C1451207   2.363   1.833   1.830  0.4913  0.3717  0.2800
  372DOPC  H14A51208   2.391   1.758   1.758  2.1257  0.5410  0.6999
  372DOPC  H14B51209   2.419   1.921   1.799 -0.2412  0.7163 -0.0941
  372DOPC  H14C51210   2.402   1.804   1.926  1.0426 -0.7505 -0.2643
  372DOPC   C1551211   2.170   1.867   1.685 -0.4422  0.4656 -0.3766
  372DOPC  H15A51212   2.063   1.854   1.683 -0.3122 -1.0388  0.9511
  372DOPC  H15B51213   2.200   1.788   1.618 -0.8162 -0.2133  0.2538
  372DOPC  H15C51214   2.183   1.962   1.635 -1.7779  0.1036 -1.4600
  372DOPC   C1151215   2.216   1.975   2.063 -0.3671  0.3418  0.5881
  372DOPC  H11A51216   2.325   1.962   2.074  0.0863  0.7702 -2.3435
  372DOPC  H11B51217   2.185   2.074   2.103  3.1555  0.8662  2.3591
  372DOPC     P51218   2.030   1.884   2.228  0.0001 -0.2997  0.2303
  372DOPC   O1351219   1.977   1.747   2.263  0.2457  0.2404 -0.0161
  372DOPC   O1451220   1.943   1.982   2.159  0.4675 -0.4580 -0.1962
  372DOPC   O1251221   2.149   1.867   2.129  0.2044 -0.4652 -0.0084
  372DOPC   O1151222   2.087   1.946   2.358 -0.1636 -1.1959 -0.0782
  372DOPC    C151223   2.201   1.886   2.426 -0.0946 -0.3065 -0.3260
  372DOPC    HA51224   2.290   1.880   2.360 -0.6174 -1.0716 -0.9843
  372DOPC    HB51225   2.175   1.781   2.451 -0.7356  0.0539  0.5639
  372DOPC    C251226   2.229   1.953   2.559 -0.2232 -0.2415 -0.0884
  372DOPC    HS51227   2.311   1.893   2.604  0.1887 -0.6920 -1.3870
  372DOPC   O2151228   2.115   1.960   2.650 -0.3389  0.0744 -0.2162
  372DOPC   C2151229   2.064   1.848   2.695  0.2622  0.4646 -0.3436
  372DOPC   O2251230   2.102   1.732   2.664  0.0173  0.1236  0.5471
  372DOPC   C2251231   1.945   1.886   2.786  0.2354  0.9128  0.1319
  372DOPC   H2R51232   1.880   1.953   2.725 -0.4089 -1.3743 -1.8465
  372DOPC   H2S51233   1.978   1.934   2.881 -1.7298  1.1072  0.7526
  372DOPC    C351234   2.281   2.099   2.548  0.7704  0.8154 -0.2597
  372DOPC    HX51235   2.196   2.163   2.516  1.0257  1.8590  1.0216
  372DOPC    HY51236   2.353   2.109   2.464  0.9248 -2.7786 -0.6885
  372DOPC   O3151237   2.315   2.148   2.681  0.0950 -1.1000 -0.1548
  372DOPC   C3151238   2.423   2.099   2.739  0.4434 -0.1730 -1.0389
  372DOPC   O3251239   2.498   2.013   2.695  0.2267  0.1595  0.6254
  372DOPC   C3251240   2.428   2.146   2.885  1.2115 -0.1990  0.3468
  372DOPC   H2X51241   2.523   2.201   2.901  0.6203  0.5697  1.3703
  372DOPC   H2Y51242   2.340   2.211   2.902 -1.2514 -2.7285 -1.8904
  372DOPC   C2351243   1.859   1.764   2.826  0.2662  0.6152  0.5240
  372DOPC   H3R51244   1.923   1.674   2.822 -0.2407  0.2949 -2.3909
  372DOPC   H3S51245   1.787   1.753   2.742  1.6755  2.3368 -0.9907
  372DOPC   C2451246   1.781   1.773   2.954  0.3120 -0.3855  0.2972
  372DOPC   H4R51247   1.704   1.693   2.943 -0.2515  0.1717  0.0702
  372DOPC   H4S51248   1.727   1.870   2.955  0.4035 -0.3306  0.0187
  372DOPC   C2551249   1.871   1.732   3.070 -0.5348 -0.4138 -0.6950
  372DOPC   H5R51250   1.925   1.820   3.110 -0.2030 -0.3967 -1.1692
  372DOPC   H5S51251   1.961   1.673   3.041  0.9396  0.2424  2.1762
  372DOPC   C2651252   1.817   1.651   3.187  0.7237  0.2038  0.3844
  372DOPC   H6R51253   1.742   1.572   3.168 -0.8312  1.3193  1.6115
  372DOPC   H6S51254   1.767   1.724   3.254 -2.3198 -1.9453  0.6080
  372DOPC   C2751255   1.923   1.582   3.272 -0.5398  0.0459  0.1456
  372DOPC   H7R51256   1.994   1.660   3.307  0.2258  0.3873 -1.9822
  372DOPC   H7S51257   1.971   1.504   3.209  0.3248  0.6187  0.0688
  372DOPC   C2851258   1.866   1.523   3.403  0.3818 -0.3443 -0.7574
  372DOPC   H8R51259   1.787   1.448   3.380 -0.4450 -0.4654  2.1468
  372DOPC   H8S51260   1.809   1.608   3.447 -0.6892 -0.5730 -1.6565
  372DOPC   C2951261   1.961   1.473   3.508 -0.1967 -0.1198 -0.6137
  372DOPC   H9R51262   2.065   1.507   3.506  0.1073 -0.8902  0.9687
  372DOPC  C21051263   1.919   1.398   3.610 -0.1841  0.2813  0.0969
  372DOPC  H10R51264   2.002   1.345   3.659  1.1858  1.0276 -1.3149
  372DOPC  C21151265   1.784   1.338   3.642  0.0382 -0.2951  0.5569
  372DOPC  H11R51266   1.779   1.266   3.727 -1.2815 -0.7525  0.1273
  372DOPC  H11S51267   1.748   1.294   3.546  1.2948  1.6721 -0.8723
  372DOPC  C21251268   1.680   1.443   3.684 -0.8955 -0.0780 -0.8828
  372DOPC  H12R51269   1.582   1.395   3.704 -1.0701 -0.0316 -1.5909
  372DOPC  H12S51270   1.663   1.517   3.603  0.0156 -0.1613 -1.1626
  372DOPC  C21351271   1.725   1.516   3.815  0.0372  1.0217 -0.1243
  372DOPC  H13R51272   1.819   1.567   3.785 -0.1102  0.4529 -1.6855
  372DOPC  H13S51273   1.745   1.442   3.896  2.4456  2.3200  0.5476
  372DOPC  C21451274   1.620   1.620   3.859 -0.2666 -0.1674  0.2099
  372DOPC  H14R51275   1.523   1.578   3.894  0.5380 -1.0081  1.4976
  372DOPC  H14S51276   1.610   1.699   3.781 -1.4723  0.5748  1.0921
  372DOPC  C21551277   1.688   1.693   3.978 -0.2318 -0.4451 -0.2382
  372DOPC  H15R51278   1.658   1.800   3.982 -0.0090 -0.4182  0.9845
  372DOPC  H15S51279   1.796   1.698   3.956 -0.5992  0.1572 -2.0676
  372DOPC  C21651280   1.669   1.620   4.110  0.6759 -0.3219 -0.5299
  372DOPC  H16R51281   1.760   1.561   4.132  0.6240 -0.3787 -0.4661
  372DOPC  H16S51282   1.585   1.551   4.086  0.1671  0.3096 -0.6008
  372DOPC  C21751283   1.635   1.730   4.219 -0.4601 -0.1993  0.2016
  372DOPC  H17R51284   1.548   1.787   4.178 -0.2606  0.2809  0.4385
  372DOPC  H17S51285   1.718   1.802   4.231 -0.5849  0.1815 -0.9991
  372DOPC  C21851286   1.588   1.667   4.346  0.0941  0.3745 -0.3972
  372DOPC  H18R51287   1.654   1.588   4.386 -1.5147 -1.4228 -1.1257
  372DOPC  H18S51288   1.489   1.625   4.317  1.1235 -0.5395 -2.8711
  372DOPC  H18T51289   1.577   1.739   4.430  1.0050 -1.1306  1.0704
  372DOPC   C3351290   2.417   2.043   3.002 -0.4978 -0.2743  0.0663
  372DOPC   H3X51291   2.431   2.094   3.099 -0.6202  0.1645 -0.1453
  372DOPC   H3Y51292   2.500   1.969   3.003 -1.0314 -0.8759  0.6005
  372DOPC   C3451293   2.277   1.979   3.010  0.5214  0.5298 -0.9838
  372DOPC   H4X51294   2.264   1.901   2.932  0.1654  0.9735 -1.3760
  372DOPC   H4Y51295   2.208   2.064   2.988  0.9654  1.1258 -0.1120
  372DOPC   C3551296   2.249   1.932   3.156  0.4109  0.4445  0.3598
  372DOPC   H5X51297   2.147   1.962   3.189  0.9801  1.5178  1.1942
  372DOPC   H5Y51298   2.323   1.981   3.222  2.3344 -0.0968 -1.2800
  372DOPC   C3651299   2.273   1.780   3.168  0.0321  0.0417 -0.0028
  372DOPC   H6X51300   2.182   1.717   3.167  0.9570 -1.3675  0.7186
  372DOPC   H6Y51301   2.341   1.740   3.090  1.2381 -0.1941  1.1208
  372DOPC   C3751302   2.347   1.751   3.304  0.3983 -0.4020 -0.2606
  372DOPC   H7X51303   2.448   1.797   3.318  0.7031 -0.7051 -1.3535
  372DOPC   H7Y51304   2.280   1.806   3.373  0.5111 -0.1034 -0.3831
  372DOPC   C3851305   2.353   1.595   3.337  0.2184  0.0530  0.4388
  372DOPC   H8X51306   2.252   1.555   3.311  0.4530 -0.1407 -0.1798
  372DOPC   H8Y51307   2.372   1.596   3.447 -0.0326 -0.5187  0.4938
  372DOPC   C3951308   2.466   1.529   3.264  0.2759  0.7994 -0.4359
  372DOPC   H9X51309   2.469   1.534   3.155  0.8650 -0.2691 -0.4886
  372DOPC  C31051310   2.574   1.480   3.329  0.5472 -0.0866 -0.2997
  372DOPC  H10X51311   2.647   1.428   3.266  2.2806  2.2254 -0.3229
  372DOPC  C31151312   2.587   1.465   3.477 -0.4767 -1.0200  0.0971
  372DOPC  H11X51313   2.578   1.565   3.524  1.3383  0.3363 -2.2903
  372DOPC  H11Y51314   2.693   1.436   3.496  0.6018  2.7263  0.4534
  372DOPC  C31251315   2.495   1.363   3.538 -0.4168  0.0589  0.0689
  372DOPC  H12X51316   2.492   1.267   3.482 -1.5892  0.8504 -1.3106
  372DOPC  H12Y51317   2.391   1.400   3.550 -1.2023 -1.8609 -0.4292
  372DOPC  C31351318   2.548   1.326   3.673 -0.5139 -0.9114 -0.5658
  372DOPC  H13X51319   2.652   1.287   3.676 -0.4503 -0.7093  1.1831
  372DOPC  H13Y51320   2.555   1.415   3.740  0.7949 -0.9482 -0.6130
  372DOPC  C31451321   2.463   1.220   3.731  0.2460  0.5459 -0.4495
  372DOPC  H14X51322   2.383   1.267   3.792  0.3615 -1.4304  1.3383
  372DOPC  H14Y51323   2.412   1.164   3.649 -0.2950 -0.0911  0.3084
  372DOPC  C31551324   2.525   1.125   3.832 -0.0279  0.4676 -0.3422
  372DOPC  H15X51325   2.518   1.161   3.937 -1.0400  0.1534 -0.2895
  372DOPC  H15Y51326   2.626   1.103   3.791  0.9401  1.8217  1.1952
  372DOPC  C31651327   2.444   0.995   3.845  0.2346 -0.4913 -0.5302
  372DOPC  H16X51328   2.350   1.012   3.902  0.1871 -0.6163 -0.5714
  372DOPC  H16Y51329   2.425   0.950   3.745 -1.1795 -1.4760  0.1497
  372DOPC  C31751330   2.519   0.893   3.927  0.1738  0.7267 -0.1682
  372DOPC  H17X51331   2.445   0.810   3.927 -0.2213  1.0616 -1.4820
  372DOPC  H17Y51332   2.610   0.867   3.870 -0.1352  0.0298 -0.3419
  372DOPC  C31851333   2.562   0.934   4.069  0.9135  0.5227  0.5368
  372DOPC  H18X51334   2.630   0.856   4.107 -0.7590 -2.3789 -1.9829
  372DOPC  H18Y51335   2.610   1.034   4.062  0.7499  0.6852  1.6083
  372DOPC  H18Z51336   2.472   0.936   4.135 -0.3195  2.0846 -1.0544
  373DOPC     N51337  12.378   4.107   1.837 -0.1470 -0.2661  0.7915
  373DOPC   C1251338  12.315   4.043   1.960 -0.7080  0.1120  0.8605
  373DOPC  H12A51339  12.215   4.010   1.937 -0.9851  0.9955  0.7276
  373DOPC  H12B51340  12.303   4.117   2.038  2.4123 -1.1238  2.6735
  373DOPC   C1351341  12.294   4.220   1.789  0.1785  0.4576 -0.3442
  373DOPC  H13A51342  12.193   4.180   1.793  0.5340 -0.5639 -1.2387
  373DOPC  H13B51343  12.299   4.298   1.863  0.6602 -1.4454  1.7366
  373DOPC  H13C51344  12.325   4.242   1.688  0.6066 -1.5395 -0.6839
  373DOPC   C1451345  12.388   4.003   1.728 -0.0324 -0.0093 -0.3037
  373DOPC  H14A51346  12.441   3.927   1.784 -0.0283  1.7398  2.2401
  373DOPC  H14B51347  12.286   3.971   1.715 -0.3401  0.4312  0.8863
  373DOPC  H14C51348  12.428   4.031   1.632  1.2518  0.1835  0.2676
  373DOPC   C1551349  12.512   4.164   1.868 -0.1598  0.3521 -0.3302
  373DOPC  H15A51350  12.500   4.239   1.945  1.1654 -0.3002  0.5700
  373DOPC  H15B51351  12.568   4.210   1.788  1.2001  0.4411  0.6389
  373DOPC  H15C51352  12.572   4.085   1.912  1.4356  1.1431 -1.0151
  373DOPC   C1151353  12.377   3.922   2.031  0.4221 -0.0548 -0.0923
  373DOPC  H11A51354  12.477   3.939   2.076 -0.1316 -1.1413  1.6340
  373DOPC  H11B51355  12.318   3.894   2.120 -2.2807 -0.3176 -1.8589
  373DOPC     P51356  12.255   3.728   1.927  0.1154  0.1654  0.3457
  373DOPC   O1351357  12.278   3.635   1.813 -0.2844 -0.2421  0.4086
  373DOPC   O1451358  12.141   3.819   1.910  0.7381 -0.1623  0.1974
  373DOPC   O1251359  12.394   3.807   1.951 -0.4214 -0.1822  0.0844
  373DOPC   O1151360  12.240   3.644   2.052  0.0817  0.0525  0.2169
  373DOPC    C151361  12.320   3.527   2.080 -0.2564  0.3422 -0.2106
  373DOPC    HA51362  12.428   3.544   2.061 -0.2783  0.3929 -0.2907
  373DOPC    HB51363  12.288   3.458   1.999 -2.1098  1.0125 -0.1074
  373DOPC    C251364  12.277   3.478   2.223 -0.7512 -0.0780  0.5843
  373DOPC    HS51365  12.269   3.368   2.219 -1.0515 -0.0365 -0.2110
  373DOPC   O2151366  12.152   3.535   2.268  0.1301 -0.6191 -0.1706
  373DOPC   C2151367  12.045   3.489   2.205  0.3225 -0.2776 -0.3488
  373DOPC   O2251368  12.054   3.398   2.121 -0.2626 -0.4089  0.3144
  373DOPC   C2251369  11.912   3.557   2.240  0.4154 -0.1667  0.6552
  373DOPC   H2R51370  11.834   3.510   2.177  1.7872 -1.8527  0.1219
  373DOPC   H2S51371  11.925   3.661   2.205 -1.8751  0.3399  1.1227
  373DOPC    C351372  12.382   3.513   2.341 -1.0368  0.2108 -0.3154
  373DOPC    HX51373  12.399   3.621   2.321 -0.2953  0.6773  2.3740
  373DOPC    HY51374  12.477   3.456   2.328 -0.5342  0.5842  1.4767
  373DOPC   O3151375  12.331   3.513   2.475 -1.1568 -0.4213  0.6959
  373DOPC   C3151376  12.307   3.388   2.521  0.3939 -0.0614 -0.2835
  373DOPC   O3251377  12.308   3.290   2.451  0.2327 -0.4990  0.3560
  373DOPC   C3251378  12.286   3.391   2.673  0.2898  0.0781 -0.5787
  373DOPC   H2X51379  12.387   3.405   2.718  1.3906 -3.0759 -1.7943
  373DOPC   H2Y51380  12.221   3.477   2.699  0.7166  0.0581  0.6327
  373DOPC   C2351381  11.868   3.559   2.392  0.5942 -0.0280  0.9058
  373DOPC   H3R51382  11.770   3.612   2.394  0.3233 -0.4747 -0.0673
  373DOPC   H3S51383  11.949   3.601   2.455  1.4371  0.4038 -0.4287
  373DOPC   C2451384  11.840   3.424   2.456 -0.2512 -0.4137  0.0213
  373DOPC   H4R51385  11.938   3.371   2.459 -0.9797 -1.8774 -0.6471
  373DOPC   H4S51386  11.784   3.353   2.392  2.1649  0.9133 -3.9201
  373DOPC   C2551387  11.782   3.446   2.597  0.1215  0.3136  0.5997
  373DOPC   H5R51388  11.701   3.522   2.596 -0.8189 -0.6548  1.0159
  373DOPC   H5S51389  11.858   3.497   2.661 -1.0853  1.6915  0.9908
  373DOPC   C2651390  11.722   3.323   2.662  0.6585 -0.5674 -0.3984
  373DOPC   H6R51391  11.701   3.344   2.769 -0.0564  1.3253 -0.8742
  373DOPC   H6S51392  11.795   3.240   2.649  0.4832 -0.4309 -2.8877
  373DOPC   C2751393  11.583   3.291   2.597 -1.0034  0.0752  0.1522
  373DOPC   H7R51394  11.604   3.263   2.491  0.5443  1.9964 -0.1011
  373DOPC   H7S51395  11.538   3.392   2.609  1.3608  1.1783  0.3062
  373DOPC   C2851396  11.504   3.169   2.650 -0.3753 -0.4121  0.1381
  373DOPC   H8R51397  11.406   3.168   2.599  0.0649  0.7168 -0.7578
  373DOPC   H8S51398  11.485   3.183   2.759 -0.6859 -2.1926  0.3558
  373DOPC   C2951399  11.590   3.041   2.627 -0.5176 -0.5943 -0.2270
  373DOPC   H9R51400  11.576   3.006   2.523  0.3804 -0.7348 -0.3112
  373DOPC  C21051401  11.679   2.981   2.704 -0.1344  0.5694 -0.4743
  373DOPC  H10R51402  11.740   2.898   2.664  1.1416 -0.0740  2.5044
  373DOPC  C21151403  11.728   3.016   2.839  0.1005 -0.1047 -0.3093
  373DOPC  H11R51404  11.660   2.961   2.906  2.4478 -0.5274  1.8888
  373DOPC  H11S51405  11.711   3.123   2.863  0.0707 -0.0370 -0.6209
  373DOPC  C21251406  11.872   2.967   2.875  0.4947  0.6307  0.5942
  373DOPC  H12R51407  11.951   3.016   2.814  0.9805 -1.3919 -0.5016
  373DOPC  H12S51408  11.879   2.858   2.856  1.1098  0.9127 -0.9132
  373DOPC  C21351409  11.901   2.987   3.023  0.0187 -0.0838 -0.9577
  373DOPC  H13R51410  11.819   2.933   3.076  0.5302  1.0765  1.1801
  373DOPC  H13S51411  11.893   3.097   3.038 -1.3083 -0.2053 -0.6140
  373DOPC  C21451412  12.038   2.945   3.075 -0.1758  1.1309 -0.4271
  373DOPC  H14R51413  12.123   2.994   3.022  0.4375  0.5921  0.0497
  373DOPC  H14S51414  12.060   2.838   3.055  0.3939  0.9486  1.0526
  373DOPC  C21551415  12.071   2.957   3.225  0.0902 -0.0439  0.0773
  373DOPC  H15R51416  12.109   3.061   3.237  0.4541  0.1737 -2.4580
  373DOPC  H15S51417  12.155   2.891   3.255 -0.1834  0.1389  1.2786
  373DOPC  C21651418  11.956   2.924   3.325 -0.1742 -0.1896 -0.0147
  373DOPC  H16R51419  11.901   2.831   3.302  0.3837 -1.1106  2.1300
  373DOPC  H16S51420  11.880   3.006   3.319  0.4952  0.3249 -3.1861
  373DOPC  C21751421  12.017   2.929   3.470  0.3890 -0.1084  0.2593
  373DOPC  H17R51422  12.055   3.029   3.498 -0.5539 -0.0363  1.3410
  373DOPC  H17S51423  12.104   2.859   3.472  0.5407  0.0574 -0.3228
  373DOPC  C21851424  11.925   2.883   3.580  0.1795 -0.4586  0.3717
  373DOPC  H18R51425  11.926   2.772   3.577  0.7556 -0.4429 -0.9344
  373DOPC  H18S51426  11.824   2.921   3.556  0.8448  0.1436 -1.6933
  373DOPC  H18T51427  11.963   2.928   3.674 -0.8766 -1.9660  1.5817
  373DOPC   C3351428  12.229   3.254   2.727  0.2919 -0.2784 -0.3365
  373DOPC   H3X51429  12.304   3.180   2.689  1.4986  0.7039  0.0547
  373DOPC   H3Y51430  12.132   3.234   2.677  0.3151  1.2135 -1.0360
  373DOPC   C3451431  12.205   3.252   2.873 -0.0474  0.5707  0.1275
  373DOPC   H4X51432  12.296   3.269   2.935  0.3814 -0.0218 -0.3280
  373DOPC   H4Y51433  12.185   3.148   2.905 -0.8772  0.5886 -0.3056
  373DOPC   C3551434  12.090   3.342   2.931  0.7984  0.3655 -0.4579
  373DOPC   H5X51435  11.993   3.293   2.906  2.0007 -1.0045 -2.7811
  373DOPC   H5Y51436  12.084   3.439   2.877 -0.5994 -0.0120 -1.0376
  373DOPC   C3651437  12.091   3.371   3.083 -0.4731 -0.3844  0.3763
  373DOPC   H6X51438  12.100   3.277   3.141 -0.1190 -2.3449 -2.6140
  373DOPC   H6Y51439  12.187   3.423   3.104 -0.7532  0.0452  0.6119
  373DOPC   C3751440  11.978   3.456   3.153  0.0483 -0.1175 -0.9698
  373DOPC   H7X51441  11.982   3.561   3.117  1.0939 -0.0476 -0.6754
  373DOPC   H7Y51442  11.882   3.416   3.114  0.2229 -0.5093 -1.0017
  373DOPC   C3851443  11.970   3.458   3.307  0.0512 -0.0790  0.3949
  373DOPC   H8X51444  11.896   3.539   3.323 -0.3921  0.5412 -3.7667
  373DOPC   H8Y51445  12.060   3.491   3.363  0.5114 -1.1648  0.3215
  373DOPC   C3951446  11.916   3.329   3.366  0.0041  0.3071  0.2953
  373DOPC   H9X51447  11.899   3.249   3.293 -2.6377  1.7665 -0.8195
  373DOPC  C31051448  11.891   3.302   3.497  0.9518 -0.6514 -0.2683
  373DOPC  H10X51449  11.867   3.199   3.528  1.2571  0.1515  3.0060
  373DOPC  C31151450  11.916   3.402   3.609  0.2909 -0.0499  0.0673
  373DOPC  H11X51451  12.019   3.440   3.590  0.1583 -1.3493 -4.1639
  373DOPC  H11Y51452  11.917   3.343   3.703 -0.2580 -0.7818 -0.3750
  373DOPC  C31251453  11.810   3.515   3.627 -0.0663 -0.2238  0.0650
  373DOPC  H12X51454  11.705   3.479   3.634 -0.2267  0.0614 -0.7933
  373DOPC  H12Y51455  11.822   3.577   3.535 -0.3391 -2.4388 -1.5500
  373DOPC  C31351456  11.833   3.589   3.756 -0.3552 -0.3344 -0.5356
  373DOPC  H13X51457  11.815   3.524   3.844 -0.7508  0.7308  0.1842
  373DOPC  H13Y51458  11.932   3.638   3.753  0.6324 -1.9742  2.1682
  373DOPC  C31451459  11.726   3.700   3.773 -0.2619 -0.4758  0.2210
  373DOPC  H14X51460  11.642   3.681   3.703 -0.4863  0.6933  0.1495
  373DOPC  H14Y51461  11.696   3.691   3.879 -0.2114 -0.4156  0.2407
  373DOPC  C31551462  11.794   3.836   3.760  0.2022 -0.1600  0.4154
  373DOPC  H15X51463  11.838   3.842   3.658  0.1932 -0.4066  0.3968
  373DOPC  H15Y51464  11.874   3.841   3.838  1.0871 -2.4529 -0.2547
  373DOPC  C31651465  11.694   3.954   3.771 -0.4765  0.4980  0.6996
  373DOPC  H16X51466  11.614   3.939   3.696 -0.1247  0.4541  0.3357
  373DOPC  H16Y51467  11.663   3.947   3.878 -1.7917  1.5669  0.4094
  373DOPC  C31751468  11.757   4.090   3.744 -0.3108  0.2532 -0.0117
  373DOPC  H17X51469  11.843   4.118   3.809 -0.5176  1.5529 -0.2806
  373DOPC  H17Y51470  11.803   4.082   3.644 -0.4906  2.5395 -0.3242
  373DOPC  C31851471  11.663   4.208   3.735  1.0431 -0.0400  0.4496
  373DOPC  H18X51472  11.639   4.248   3.836 -0.6686 -0.3442  0.1838
  373DOPC  H18Y51473  11.710   4.293   3.680 -1.8042  1.8788  0.7809
  373DOPC  H18Z51474  11.575   4.170   3.679  0.5914  0.9953  0.4399
  374DOPC     N51475   2.592   2.826   1.881 -0.9550 -0.1371 -0.0501
  374DOPC   C1251476   2.582   2.772   2.023  0.2208  0.7118  0.7898
  374DOPC  H12A51477   2.656   2.695   2.040 -0.6956 -0.5752 -0.7738
  374DOPC  H12B51478   2.487   2.720   2.032  0.4043  0.1410 -0.3181
  374DOPC   C1351479   2.484   2.918   1.857  0.3405  0.2400 -0.4283
  374DOPC  H13A51480   2.482   3.007   1.918 -0.8788 -0.7790  1.1041
  374DOPC  H13B51481   2.483   2.961   1.758  1.3487  1.9220  0.2479
  374DOPC  H13C51482   2.390   2.867   1.871  1.9471 -2.3197  2.2433
  374DOPC   C1451483   2.594   2.715   1.789 -0.5662 -0.0599  0.4047
  374DOPC  H14A51484   2.501   2.661   1.785 -0.7951  0.1483  2.3660
  374DOPC  H14B51485   2.605   2.752   1.688 -2.6118 -0.5279 -0.0354
  374DOPC  H14C51486   2.672   2.644   1.809 -0.4122  0.1824  0.6748
  374DOPC   C1551487   2.728   2.902   1.873 -0.2451  0.6007  0.1287
  374DOPC  H15A51488   2.800   2.860   1.942  1.4894 -1.9895 -3.0005
  374DOPC  H15B51489   2.702   2.999   1.913 -2.0970  0.3023 -0.2582
  374DOPC  H15C51490   2.763   2.913   1.772  0.3785  0.7777  0.3598
  374DOPC   C1151491   2.582   2.865   2.150 -0.4429 -0.5106  0.9168
  374DOPC  H11A51492   2.494   2.931   2.135  0.7728  0.7521 -1.0870
  374DOPC  H11B51493   2.565   2.801   2.240 -1.6631  0.5910  1.5051
  374DOPC     P51494   2.826   2.879   2.223  0.0771 -0.1958 -0.2851
  374DOPC   O1351495   2.924   2.987   2.234 -0.6207 -0.3319  0.2400
  374DOPC   O1451496   2.868   2.769   2.135  0.5358 -0.0695  0.1309
  374DOPC   O1251497   2.697   2.955   2.172  0.4209 -0.1441  0.3039
  374DOPC   O1151498   2.787   2.830   2.366 -0.2058 -0.4703 -0.7166
  374DOPC    C151499   2.734   2.918   2.464  0.7298 -0.1382  0.7226
  374DOPC    HA51500   2.684   3.006   2.417  4.2281  1.7155  0.1077
  374DOPC    HB51501   2.814   2.948   2.535  0.2378 -0.5630  1.4651
  374DOPC    C251502   2.624   2.841   2.541  0.4355 -0.1065 -0.7108
  374DOPC    HS51503   2.565   2.782   2.467 -1.1641  0.6534 -0.0973
  374DOPC   O2151504   2.547   2.938   2.616 -0.9473  0.1681  0.0128
  374DOPC   C2151505   2.436   2.977   2.554 -0.5285  0.4016 -0.4662
  374DOPC   O2251506   2.397   2.927   2.448  0.5279  0.1719  0.1978
  374DOPC   C2251507   2.372   3.080   2.638 -0.0247 -0.3114 -0.0701
  374DOPC   H2R51508   2.298   3.120   2.566  0.5422  2.1068  0.6069
  374DOPC   H2S51509   2.454   3.152   2.659 -1.0046  0.8707 -0.1628
  374DOPC    C351510   2.676   2.732   2.639  0.0265  0.6619  0.1885
  374DOPC    HX51511   2.698   2.645   2.574  0.5915 -0.0858  1.3422
  374DOPC    HY51512   2.585   2.701   2.696 -0.7983  0.6278 -1.0991
  374DOPC   O3151513   2.795   2.769   2.710  0.3041  0.1821  0.2941
  374DOPC   C3151514   2.850   2.670   2.786 -0.2099  0.2428  0.0137
  374DOPC   O3251515   2.804   2.558   2.784  0.5132  0.4928 -0.7049
  374DOPC   C3251516   2.967   2.725   2.879 -0.0862  0.0983 -0.2960
  374DOPC   H2X51517   3.063   2.720   2.822 -0.9520  0.5871 -1.8716
  374DOPC   H2Y51518   2.943   2.833   2.888  0.7663  0.1554  1.8207
  374DOPC   C2351519   2.306   3.027   2.768 -0.2578 -0.7823 -0.4170
  374DOPC   H3R51520   2.380   2.990   2.842  1.7864  3.2154 -0.1715
  374DOPC   H3S51521   2.251   2.937   2.734  1.7358 -1.7898 -1.1205
  374DOPC   C2451522   2.224   3.138   2.841  0.3819  0.4595  0.1952
  374DOPC   H4R51523   2.144   3.180   2.777 -0.2821  1.3179  1.5215
  374DOPC   H4S51524   2.284   3.229   2.863 -1.6583  1.9123  0.0499
  374DOPC   C2551525   2.163   3.080   2.973  0.3811 -0.3945  0.6037
  374DOPC   H5R51526   2.142   2.973   2.951 -1.1603  0.2342 -1.2324
  374DOPC   H5S51527   2.072   3.137   3.001 -1.1175 -1.4208 -1.8383
  374DOPC   C2651528   2.268   3.087   3.084  0.2343  1.1694  0.5560
  374DOPC   H6R51529   2.289   3.188   3.125 -1.4008  0.9279  2.1531
  374DOPC   H6S51530   2.360   3.047   3.038 -0.3110  1.9980 -1.3176
  374DOPC   C2751531   2.243   2.996   3.208 -0.6555 -0.6905  0.2224
  374DOPC   H7R51532   2.211   2.897   3.170  2.1403 -1.2904 -0.7682
  374DOPC   H7S51533   2.158   3.029   3.271 -0.6269 -0.0704 -0.0484
  374DOPC   C2851534   2.370   2.971   3.292  0.5159 -0.0283  0.5950
  374DOPC   H8R51535   2.447   2.922   3.228 -0.2693  1.1164 -1.3082
  374DOPC   H8S51536   2.340   2.894   3.366  2.0407  0.0206  1.2832
  374DOPC   C2951537   2.420   3.105   3.340  0.0367 -0.5773 -0.4294
  374DOPC   H9R51538   2.443   3.179   3.263  2.0870 -1.0786 -0.3656
  374DOPC  C21051539   2.439   3.142   3.470 -0.3772 -0.0413  0.6252
  374DOPC  H10R51540   2.460   3.249   3.486 -1.6152  0.2079  0.6843
  374DOPC  C21151541   2.415   3.063   3.596  0.4053 -0.2123 -0.3101
  374DOPC  H11R51542   2.513   3.026   3.632  1.1398 -1.2765 -3.1532
  374DOPC  H11S51543   2.359   2.969   3.582  0.2536 -0.0240 -1.0120
  374DOPC  C21251544   2.350   3.138   3.717  0.1079  0.0952  0.8475
  374DOPC  H12R51545   2.343   3.062   3.797  2.2239 -1.6004 -0.4701
  374DOPC  H12S51546   2.248   3.168   3.684  1.4195  3.0975 -0.8361
  374DOPC  C21351547   2.426   3.264   3.768 -0.5213 -0.6874  0.1565
  374DOPC  H13R51548   2.533   3.263   3.740 -0.3650 -1.6597  0.7639
  374DOPC  H13S51549   2.418   3.271   3.879 -1.4275 -1.6038  0.1606
  374DOPC  C21451550   2.365   3.393   3.698 -0.1175 -0.6004 -0.7333
  374DOPC  H14R51551   2.273   3.420   3.754  0.5827 -1.0851  0.6837
  374DOPC  H14S51552   2.342   3.383   3.589 -1.2240  0.0225 -0.5721
  374DOPC  C21551553   2.477   3.500   3.709 -0.1152  0.8765  0.3434
  374DOPC  H15R51554   2.438   3.586   3.651  0.3836  0.1415 -1.1347
  374DOPC  H15S51555   2.565   3.462   3.652 -1.6953 -0.4535 -1.3376
  374DOPC  C21651556   2.511   3.557   3.854 -0.2288 -1.2634  0.5571
  374DOPC  H16R51557   2.532   3.476   3.927 -0.0939 -3.3602 -1.6650
  374DOPC  H16S51558   2.432   3.615   3.907  1.1868  1.0133  0.2923
  374DOPC  C21751559   2.626   3.667   3.846  0.4446 -0.1956  0.3363
  374DOPC  H17R51560   2.594   3.732   3.762  0.3149  0.4802  0.8981
  374DOPC  H17S51561   2.715   3.622   3.797  0.3071  1.4486 -1.5678
  374DOPC  C21851562   2.652   3.741   3.973 -0.8432  0.6318 -0.2336
  374DOPC  H18R51563   2.569   3.805   4.009 -1.5257 -0.1886 -0.3329
  374DOPC  H18S51564   2.740   3.808   3.963 -0.6259  0.3736 -0.0509
  374DOPC  H18T51565   2.673   3.668   4.053  0.1047 -0.6780 -1.6244
  374DOPC   C3351566   2.972   2.649   3.017 -0.2192  1.0902  0.6028
  374DOPC   H3X51567   3.076   2.667   3.052  0.8909  2.3308 -2.9542
  374DOPC   H3Y51568   2.963   2.539   3.003 -2.6320  1.2445  0.5325
  374DOPC   C3451569   2.856   2.706   3.102 -0.7972 -0.6864 -0.1708
  374DOPC   H4X51570   2.847   2.635   3.188  2.4582  0.7703  1.5677
  374DOPC   H4Y51571   2.765   2.723   3.042 -0.4582  0.5949 -0.3406
  374DOPC   C3551572   2.885   2.848   3.171  0.0468  0.2275 -0.2604
  374DOPC   H5X51573   2.819   2.925   3.127 -0.9439 -1.8661 -2.7207
  374DOPC   H5Y51574   2.990   2.880   3.157  0.2889 -0.8011 -0.9397
  374DOPC   C3651575   2.861   2.856   3.321  0.1754 -0.2889  0.3782
  374DOPC   H6X51576   2.754   2.857   3.350  0.8410  1.6195  3.0733
  374DOPC   H6Y51577   2.894   2.760   3.366 -0.9101 -0.5301  0.6661
  374DOPC   C3751578   2.934   2.972   3.396 -0.5575  0.6882 -0.2332
  374DOPC   H7X51579   3.045   2.968   3.397 -0.5717  0.4408  0.2449
  374DOPC   H7Y51580   2.906   3.069   3.349 -0.5016  0.3781 -0.9201
  374DOPC   C3851581   2.888   2.981   3.546 -0.2203 -0.4647 -0.0835
  374DOPC   H8X51582   2.909   2.896   3.614 -0.2236 -2.3040 -2.2779
  374DOPC   H8Y51583   2.778   2.995   3.541 -0.2522  0.3109  1.7940
  374DOPC   C3951584   2.942   3.100   3.617 -0.3773 -0.2368 -0.3072
  374DOPC   H9X51585   2.880   3.192   3.618 -1.4897 -0.9360  2.1105
  374DOPC  C31051586   3.063   3.111   3.674 -0.2546 -0.0237 -0.7143
  374DOPC  H10X51587   3.087   3.200   3.734  1.8551  0.6865 -2.5104
  374DOPC  C31151588   3.175   3.003   3.679 -0.0382  0.5086 -0.6314
  374DOPC  H11X51589   3.138   2.902   3.649 -1.4796  1.3665 -1.8474
  374DOPC  H11Y51590   3.212   2.982   3.782  1.9727 -1.5297 -1.6510
  374DOPC  C31251591   3.303   3.050   3.605 -0.4429 -0.5434  0.3582
  374DOPC  H12X51592   3.276   3.049   3.497  1.0602  0.3407 -0.0582
  374DOPC  H12Y51593   3.378   2.970   3.622  0.1753  0.1640  1.0486
  374DOPC  C31351594   3.364   3.183   3.652 -0.7839 -0.1524 -0.4209
  374DOPC  H13X51595   3.448   3.205   3.584 -1.6373 -1.0400 -1.8118
  374DOPC  H13Y51596   3.296   3.271   3.642 -0.3362  0.2769  0.2530
  374DOPC  C31451597   3.419   3.186   3.800  0.0128  0.3402 -0.5182
  374DOPC  H14X51598   3.335   3.143   3.859  1.8117 -0.8881  1.3000
  374DOPC  H14Y51599   3.511   3.129   3.824 -0.4410  0.9153  3.1889
  374DOPC  C31551600   3.434   3.332   3.854 -0.0021  0.3294 -0.5514
  374DOPC  H15X51601   3.477   3.331   3.957 -0.9096  1.1065 -0.1540
  374DOPC  H15Y51602   3.335   3.381   3.860 -0.2164 -0.1413 -0.1985
  374DOPC  C31651603   3.536   3.410   3.771  0.2915 -0.0951 -0.4204
  374DOPC  H16X51604   3.620   3.339   3.754  1.7651  0.6803  2.7548
  374DOPC  H16Y51605   3.487   3.449   3.680 -0.4230  2.1874  0.8632
  374DOPC  C31751606   3.597   3.530   3.856  0.3389  0.2416  0.3100
  374DOPC  H17X51607   3.643   3.487   3.947  0.9360 -1.0842 -0.5998
  374DOPC  H17Y51608   3.666   3.601   3.806  1.7314 -0.1248  1.6651
  374DOPC  C31851609   3.487   3.625   3.910 -0.1686 -0.4565  0.0765
  374DOPC  H18X51610   3.528   3.705   3.975  1.8532  0.8085 -2.5248
  374DOPC  H18Y51611   3.421   3.664   3.829 -0.1776  0.9039  0.7055
  374DOPC  H18Z51612   3.429   3.557   3.975  1.5765 -1.3941  0.7132
  375DOPC     N51613   0.113   9.269   1.521  0.1964  0.2293 -0.1362
  375DOPC   C1251614   0.119   9.346   1.652  0.4351 -0.2648 -0.6725
  375DOPC  H12A51615   0.049   9.297   1.717 -0.4623 -0.7554 -1.9768
  375DOPC  H12B51616   0.080   9.447   1.651  2.3267  0.6185  2.4442
  375DOPC   C1351617   0.157   9.129   1.538 -0.1459 -0.0126  0.1870
  375DOPC  H13A51618   0.257   9.136   1.580  0.5116 -1.0930 -1.1228
  375DOPC  H13B51619   0.086   9.067   1.590  0.3517  0.4032  1.3977
  375DOPC  H13C51620   0.175   9.095   1.437  2.7817  3.3888 -0.6697
  375DOPC   C1451621   0.206   9.324   1.417 -0.8371 -0.5234 -0.2692
  375DOPC  H14A51622   0.189   9.274   1.323 -1.8618  0.1125 -0.4445
  375DOPC  H14B51623   0.200   9.431   1.407  1.2655 -0.4142 -0.8224
  375DOPC  H14C51624   0.307   9.309   1.452 -0.5139  0.3007 -0.8340
  375DOPC   C1551625  -0.036   9.261   1.479 -0.5807  0.2912 -0.6886
  375DOPC  H15A51626  -0.037   9.215   1.382 -0.0429  0.5142 -0.8061
  375DOPC  H15B51627  -0.076   9.360   1.465 -2.9239 -0.7924 -2.1621
  375DOPC  H15C51628  -0.085   9.199   1.553  2.1335 -0.6203  0.4764
  375DOPC   C1151629   0.258   9.364   1.731  1.1244 -0.5338 -0.4137
  375DOPC  H11A51630   0.339   9.417   1.676  0.9367  2.6093  2.0493
  375DOPC  H11B51631   0.233   9.428   1.818  1.6101 -1.1856  0.2142
  375DOPC     P51632   0.424   9.160   1.760 -0.1925 -0.3602  0.5723
  375DOPC   O1351633   0.486   9.205   1.633  0.9187 -0.2681 -0.1222
  375DOPC   O1451634   0.392   9.019   1.786 -0.4292  0.3987  0.2078
  375DOPC   O1251635   0.292   9.236   1.783  0.3029 -0.3250  0.6828
  375DOPC   O1151636   0.528   9.196   1.872  0.1047 -0.2663  0.0042
  375DOPC    C151637   0.490   9.254   2.001 -0.1058  0.6876 -0.0854
  375DOPC    HA51638   0.403   9.323   2.004  0.0719  0.9267 -0.3369
  375DOPC    HB51639   0.572   9.314   2.046  1.4835 -0.7535 -0.9392
  375DOPC    C251640   0.471   9.129   2.089 -0.3388  0.5893 -0.0581
  375DOPC    HS51641   0.382   9.072   2.054 -2.1158  2.7584  0.6762
  375DOPC   O2151642   0.448   9.184   2.221  0.5308  1.1002 -0.3245
  375DOPC   C2151643   0.323   9.189   2.257 -0.1880  0.0575 -0.0341
  375DOPC   O2251644   0.225   9.175   2.186 -0.4041  0.0408  0.9646
  375DOPC   C2251645   0.324   9.203   2.408  0.5785 -0.1517  0.2435
  375DOPC   H2R51646   0.274   9.297   2.437  0.8214 -0.1519  0.6612
  375DOPC   H2S51647   0.429   9.210   2.444  0.2726 -1.4407  1.4803
  375DOPC    C351648   0.596   9.030   2.100 -0.1984 -0.1726 -0.1006
  375DOPC    HX51649   0.686   9.086   2.134 -0.7977  1.3354 -0.8976
  375DOPC    HY51650   0.630   8.981   2.006  3.8053  0.7440  0.6570
  375DOPC   O3151651   0.574   8.924   2.195  0.2937  0.0188 -0.5104
  375DOPC   C3151652   0.673   8.837   2.209 -0.2260 -0.3089 -0.1715
  375DOPC   O3251653   0.780   8.843   2.155  0.6808  0.5646  0.3539
  375DOPC   C3251654   0.617   8.712   2.279  0.7988 -0.3362  0.2413
  375DOPC   H2X51655   0.564   8.654   2.201 -2.1664  1.1029  1.0074
  375DOPC   H2Y51656   0.707   8.661   2.319  1.2303 -1.7938 -2.4272
  375DOPC   C2351657   0.245   9.091   2.476  0.7594 -0.0398 -0.2096
  375DOPC   H3R51658   0.276   8.994   2.432 -2.8190 -1.5269  0.1953
  375DOPC   H3S51659   0.136   9.091   2.454  0.8083  0.9927 -0.4991
  375DOPC   C2451660   0.268   9.089   2.628 -0.2965  0.2859  0.3966
  375DOPC   H4R51661   0.374   9.086   2.660 -0.6878  0.3825  1.7574
  375DOPC   H4S51662   0.223   8.999   2.675  1.1284 -0.4274  0.4449
  375DOPC   C2551663   0.210   9.211   2.704 -0.4686  0.4143 -0.3364
  375DOPC   H5R51664   0.103   9.180   2.714  0.1517 -2.2241 -1.1069
  375DOPC   H5S51665   0.227   9.304   2.646  0.3700  0.8392  0.5612
  375DOPC   C2651666   0.264   9.216   2.851  0.5328  0.3424  0.2195
  375DOPC   H6R51667   0.364   9.264   2.852  0.7243 -0.0278 -0.4719
  375DOPC   H6S51668   0.271   9.109   2.879  0.7927  0.5797  1.1033
  375DOPC   C2751669   0.166   9.305   2.941 -0.5425  0.2800  0.0102
  375DOPC   H7R51670   0.059   9.288   2.914 -0.4559 -0.1606 -0.0659
  375DOPC   H7S51671   0.199   9.409   2.918  0.3649 -0.1966 -0.9345
  375DOPC   C2851672   0.181   9.283   3.092  0.1840  0.6665  0.0034
  375DOPC   H8R51673   0.103   9.353   3.129 -0.9558  1.3275 -3.3287
  375DOPC   H8S51674   0.279   9.313   3.135  0.1453  1.0975 -0.1991
  375DOPC   C2951675   0.157   9.143   3.152 -0.1019 -0.2253  0.7239
  375DOPC   H9R51676   0.203   9.058   3.099  1.5790  0.7715  0.5158
  375DOPC  C21051677   0.079   9.106   3.251  0.6941 -0.1471 -0.6642
  375DOPC  H10R51678   0.067   8.998   3.265  0.0086 -0.4002 -2.9030
  375DOPC  C21151679  -0.008   9.182   3.350  0.2068 -0.3039  0.4018
  375DOPC  H11R51680   0.009   9.291   3.354 -1.2168 -0.0054 -0.7278
  375DOPC  H11S51681   0.018   9.142   3.450  1.3641 -1.6025 -0.3870
  375DOPC  C21251682  -0.159   9.167   3.323 -0.4309 -0.1898  0.5054
  375DOPC  H12R51683  -0.193   9.067   3.357 -0.7559  0.0862  1.0088
  375DOPC  H12S51684  -0.182   9.164   3.215  0.2932  0.6307  0.3157
  375DOPC  C21351685  -0.249   9.261   3.404  0.9551  0.5503  0.0987
  375DOPC  H13R51686  -0.353   9.253   3.364  1.0931 -3.0900  0.0761
  375DOPC  H13S51687  -0.220   9.365   3.376 -1.8282  1.4940  0.4291
  375DOPC  C21451688  -0.238   9.240   3.558  0.3139  0.0431  0.2939
  375DOPC  H14R51689  -0.247   9.338   3.609  2.0938 -0.3952  1.5534
  375DOPC  H14S51690  -0.133   9.214   3.583  1.3653  2.5571 -1.1382
  375DOPC  C21551691  -0.329   9.133   3.622 -0.5637  0.1471 -0.8462
  375DOPC  H15R51692  -0.267   9.041   3.613  0.6666  0.9245 -0.6450
  375DOPC  H15S51693  -0.425   9.122   3.568  0.3458  1.7826 -2.9603
  375DOPC  C21651694  -0.349   9.149   3.774  0.2678  0.5189  0.4066
  375DOPC  H16R51695  -0.394   9.249   3.789 -0.5456  0.3377 -0.7004
  375DOPC  H16S51696  -0.255   9.134   3.831  0.5643 -0.7640 -0.3685
  375DOPC  C21751697  -0.442   9.047   3.849  0.0365  0.1366 -0.0538
  375DOPC  H17R51698  -0.382   8.954   3.853  1.3617  0.9240 -0.8338
  375DOPC  H17S51699  -0.525   9.011   3.784 -0.1340 -2.1504  1.3208
  375DOPC  C21851700  -0.496   9.078   3.983 -0.2333  0.2900  0.2608
  375DOPC  H18R51701  -0.576   9.155   3.981  0.4153  0.9774  0.1701
  375DOPC  H18S51702  -0.410   9.127   4.034  0.9367  0.3186 -1.6237
  375DOPC  H18T51703  -0.544   8.992   4.034  3.2311 -0.6670  2.2339
  375DOPC   C3351704   0.504   8.737   2.383  0.1292 -0.5703 -0.2990
  375DOPC   H3X51705   0.450   8.641   2.402 -1.6146  0.5918  0.9721
  375DOPC   H3Y51706   0.424   8.800   2.339  1.0705  0.3556 -0.7250
  375DOPC   C3451707   0.543   8.791   2.521 -0.3566  0.8429 -0.3272
  375DOPC   H4X51708   0.557   8.901   2.522  0.5693  0.7282 -0.0158
  375DOPC   H4Y51709   0.634   8.748   2.569 -1.6009 -0.0057  1.4200
  375DOPC   C3551710   0.431   8.766   2.620 -0.1612 -0.3259 -0.0231
  375DOPC   H5X51711   0.421   8.655   2.619 -0.3626 -0.3967  2.6436
  375DOPC   H5Y51712   0.335   8.806   2.582 -0.8585  1.9359  3.5886
  375DOPC   C3651713   0.460   8.811   2.761  0.8575 -0.4366 -0.1339
  375DOPC   H6X51714   0.548   8.752   2.794 -1.6458 -2.3567  3.9275
  375DOPC   H6Y51715   0.476   8.919   2.779 -1.5927 -0.2461  1.2287
  375DOPC   C3751716   0.364   8.756   2.866  0.2013  0.0281 -0.8008
  375DOPC   H7X51717   0.262   8.798   2.856 -0.9902 -2.2311  0.9853
  375DOPC   H7Y51718   0.359   8.647   2.847  0.1749  0.1979 -1.7774
  375DOPC   C3851719   0.407   8.787   3.012 -0.4645 -0.6521  0.1585
  375DOPC   H8X51720   0.397   8.898   3.017 -0.0018 -0.6328  0.9285
  375DOPC   H8Y51721   0.515   8.764   3.023  0.0640  0.9999 -1.2065
  375DOPC   C3951722   0.323   8.710   3.107  0.4976  0.2221 -0.2201
  375DOPC   H9X51723   0.233   8.675   3.055  0.6544 -0.3922 -0.0832
  375DOPC  C31051724   0.337   8.687   3.244  0.7971 -0.1284  0.1133
  375DOPC  H10X51725   0.270   8.611   3.288 -0.3586  0.0173 -1.3052
  375DOPC  C31151726   0.448   8.737   3.335 -0.4594  0.2841 -0.2048
  375DOPC  H11X51727   0.519   8.803   3.281 -1.3420  1.3718 -0.0806
  375DOPC  H11Y51728   0.511   8.653   3.373 -0.2478 -0.4178 -2.0413
  375DOPC  C31251729   0.395   8.815   3.462 -0.2609  0.2806  0.2017
  375DOPC  H12X51730   0.385   8.923   3.437 -1.7425  0.1525  0.1894
  375DOPC  H12Y51731   0.474   8.817   3.540 -2.4472  0.3948  2.5573
  375DOPC  C31351732   0.289   8.751   3.549  0.7450  0.3755 -0.1233
  375DOPC  H13X51733   0.196   8.747   3.488  0.8177  2.1539 -0.4072
  375DOPC  H13Y51734   0.323   8.651   3.585  0.8499  0.9147  1.3721
  375DOPC  C31451735   0.268   8.826   3.682  0.5740 -0.6852  0.5357
  375DOPC  H14X51736   0.362   8.817   3.741  0.3797  0.7482  1.1077
  375DOPC  H14Y51737   0.246   8.934   3.669  0.3588 -0.9499 -1.4760
  375DOPC  C31551738   0.161   8.767   3.762 -0.1272 -0.1081 -0.7012
  375DOPC  H15X51739   0.199   8.678   3.816 -0.2993 -1.9006 -3.3565
  375DOPC  H15Y51740   0.073   8.740   3.699 -0.9988  0.4347  0.2426
  375DOPC  C31651741   0.108   8.868   3.863 -0.2917 -0.6581  0.0134
  375DOPC  H16X51742   0.069   8.956   3.808 -1.6891 -0.1450  1.7242
  375DOPC  H16Y51743   0.022   8.817   3.912 -0.4801  0.9452  1.4636
  375DOPC  C31751744   0.215   8.907   3.968 -0.1556 -0.6034 -0.9299
  375DOPC  H17X51745   0.270   8.815   3.999  1.5897  1.0322  1.1593
  375DOPC  H17Y51746   0.297   8.969   3.926  1.4418 -0.1681  2.4804
  375DOPC  C31851747   0.169   8.998   4.085  0.0842  0.0582  0.7644
  375DOPC  H18X51748   0.257   9.018   4.150 -0.7523 -3.0454  3.1450
  375DOPC  H18Y51749   0.127   9.092   4.044 -1.5480  0.6875  3.6036
  375DOPC  H18Z51750   0.104   8.945   4.159 -0.7229 -1.8540 -1.2137
  376DOPC     N51751   0.620   5.800   1.448 -0.2946 -0.2490  0.4288
  376DOPC   C1251752   0.514   5.690   1.435 -0.2257  0.6086  0.4236
  376DOPC  H12A51753   0.484   5.687   1.331  1.2541  0.3559 -0.0245
  376DOPC  H12B51754   0.436   5.742   1.488 -0.9632  1.7138 -1.6125
  376DOPC   C1351755   0.752   5.764   1.388 -0.4255 -0.7365 -0.2929
  376DOPC  H13A51756   0.793   5.671   1.423 -0.7217 -1.1056 -0.8944
  376DOPC  H13B51757   0.738   5.765   1.281 -1.4362  3.1247 -0.2519
  376DOPC  H13C51758   0.816   5.845   1.417 -1.7379 -0.5641  2.3719
  376DOPC   C1451759   0.654   5.814   1.596 -0.3397 -0.4113 -0.3207
  376DOPC  H14A51760   0.751   5.861   1.605  0.0354 -1.3518  0.7769
  376DOPC  H14B51761   0.583   5.869   1.655  0.2869 -0.5144  0.5342
  376DOPC  H14C51762   0.657   5.718   1.646 -2.4518  0.5300  1.7385
  376DOPC   C1551763   0.567   5.935   1.404 -0.1916 -0.8654 -0.2516
  376DOPC  H15A51764   0.477   5.959   1.459  0.0222 -1.3802  0.3322
  376DOPC  H15B51765   0.549   5.937   1.298 -1.7632 -1.2880 -0.0239
  376DOPC  H15C51766   0.642   6.012   1.420 -3.3081  2.3084  0.2542
  376DOPC   C1151767   0.538   5.546   1.475  0.8013  0.4174  0.3970
  376DOPC  H11A51768   0.462   5.476   1.434  1.0346  0.5763 -0.3072
  376DOPC  H11B51769   0.636   5.524   1.427  0.7516  1.1657 -0.0565
  376DOPC     P51770   0.536   5.398   1.691  0.1577  0.3397 -0.0948
  376DOPC   O1351771   0.543   5.290   1.595 -0.0161 -0.4074  0.7696
  376DOPC   O1451772   0.419   5.401   1.783  0.1475  0.1575 -0.6482
  376DOPC   O1251773   0.549   5.537   1.617  0.2256 -0.8852 -0.2281
  376DOPC   O1151774   0.670   5.395   1.765 -0.1688  0.8759  0.2682
  376DOPC    C151775   0.685   5.477   1.882 -0.0232  0.3264  0.5501
  376DOPC    HA51776   0.622   5.567   1.895 -2.3239 -1.3888  1.8644
  376DOPC    HB51777   0.784   5.527   1.868  0.7767 -1.3294 -0.0108
  376DOPC    C251778   0.679   5.396   2.011 -0.8247  0.3016 -0.3364
  376DOPC    HS51779   0.577   5.357   2.030 -1.1240  1.9596  1.7582
  376DOPC   O2151780   0.717   5.478   2.129  0.4958  0.5137  0.1349
  376DOPC   C2151781   0.663   5.441   2.245  1.4389  0.0322 -0.8141
  376DOPC   O2251782   0.578   5.350   2.256 -0.6424  0.2851 -0.2705
  376DOPC   C2251783   0.703   5.533   2.355  0.7181  0.0421 -0.7711
  376DOPC   H2R51784   0.645   5.628   2.347 -0.3754 -0.5997 -0.7055
  376DOPC   H2S51785   0.808   5.570   2.358  0.5894  0.5569 -1.9879
  376DOPC    C351786   0.776   5.275   2.000 -0.0703  0.1856  0.6095
  376DOPC    HX51787   0.879   5.317   2.007 -0.3360  1.0672 -0.4406
  376DOPC    HY51788   0.776   5.229   1.899 -2.3999 -0.7802  0.9848
  376DOPC   O3151789   0.771   5.172   2.104  0.1929  0.2529  0.1747
  376DOPC   C3151790   0.703   5.068   2.066 -0.6292  0.2358 -0.2991
  376DOPC   O3251791   0.633   5.062   1.965 -0.0260 -0.3605 -0.6943
  376DOPC   C3251792   0.723   4.955   2.170  0.0040  0.4115 -0.5704
  376DOPC   H2X51793   0.749   4.861   2.117 -2.2578 -1.4255  1.3220
  376DOPC   H2Y51794   0.815   4.970   2.231 -0.7154  0.6639  0.4796
  376DOPC   C2351795   0.663   5.484   2.495  0.4856  0.5937 -0.4106
  376DOPC   H3R51796   0.556   5.453   2.492  1.0047 -2.6788  3.8938
  376DOPC   H3S51797   0.680   5.561   2.573 -1.6069  1.5035 -0.7830
  376DOPC   C2451798   0.746   5.368   2.552  0.0884 -0.3553 -0.1870
  376DOPC   H4R51799   0.850   5.396   2.580  0.1753  0.8622 -1.5941
  376DOPC   H4S51800   0.761   5.283   2.482  0.9096 -1.0509  0.7946
  376DOPC   C2551801   0.669   5.305   2.676 -0.1915 -0.4014  0.1072
  376DOPC   H5R51802   0.575   5.257   2.641 -0.0020 -0.4102 -0.3908
  376DOPC   H5S51803   0.631   5.385   2.743  0.6400  0.6832 -0.6853
  376DOPC   C2651804   0.755   5.201   2.745 -0.2798  0.4426 -0.2361
  376DOPC   H6R51805   0.845   5.185   2.681 -0.1497  2.0483 -0.4786
  376DOPC   H6S51806   0.700   5.104   2.745 -1.4026  0.9819 -3.3258
  376DOPC   C2751807   0.793   5.236   2.889  0.0556  0.3303 -0.1744
  376DOPC   H7R51808   0.707   5.254   2.958  0.2600  1.5480 -0.2144
  376DOPC   H7S51809   0.841   5.333   2.865  0.2293  0.4125  0.4720
  376DOPC   C2851810   0.880   5.118   2.931 -0.5168 -0.0665 -0.5191
  376DOPC   H8R51811   0.940   5.085   2.844 -1.5711  0.0093 -1.2899
  376DOPC   H8S51812   0.815   5.032   2.961  0.6469 -0.2054  1.8349
  376DOPC   C2951813   0.986   5.151   3.033  0.1420  0.7503 -0.3765
  376DOPC   H9R51814   1.069   5.210   2.990 -2.0501  3.7510 -0.8230
  376DOPC  C21051815   0.999   5.122   3.164  0.6526 -0.1627 -0.0275
  376DOPC  H10R51816   1.084   5.165   3.219  1.6692 -1.8856 -0.2093
  376DOPC  C21151817   0.899   5.032   3.241 -0.2460 -0.6842  0.9022
  376DOPC  H11R51818   0.801   5.012   3.192 -0.4015 -1.2395  1.4232
  376DOPC  H11S51819   0.871   5.073   3.340  0.4248  0.0616  0.7967
  376DOPC  C21251820   0.959   4.890   3.259 -1.1620  0.8806  0.1242
  376DOPC  H12R51821   1.059   4.897   3.305 -0.3542  0.8550 -1.5583
  376DOPC  H12S51822   0.974   4.843   3.159 -2.7591  1.4732 -0.4281
  376DOPC  C21351823   0.880   4.779   3.341 -0.4233 -0.8510  0.5033
  376DOPC  H13R51824   0.923   4.677   3.343 -1.6507 -1.3857  0.6481
  376DOPC  H13S51825   0.779   4.763   3.297 -0.2101  0.2576 -0.4373
  376DOPC  C21451826   0.853   4.821   3.489  0.3006 -0.2697 -0.1820
  376DOPC  H14R51827   0.787   4.746   3.537  1.0335 -0.5226  0.4586
  376DOPC  H14S51828   0.803   4.920   3.484 -0.5118 -0.5832  1.2389
  376DOPC  C21551829   0.985   4.825   3.571  0.1574  0.4174 -0.1936
  376DOPC  H15R51830   1.047   4.913   3.545  1.3485  0.5928  2.8072
  376DOPC  H15S51831   1.053   4.741   3.542 -0.9212 -0.1389 -1.1941
  376DOPC  C21651832   0.975   4.815   3.725 -0.2378  0.2014 -0.3216
  376DOPC  H16R51833   1.071   4.852   3.767  0.0129 -1.4283  0.6515
  376DOPC  H16S51834   0.956   4.713   3.765  0.9076  1.0819  2.7340
  376DOPC  C21751835   0.866   4.908   3.786  0.6409 -0.1606 -0.0561
  376DOPC  H17R51836   0.865   4.897   3.897 -0.2295  0.1391 -0.0222
  376DOPC  H17S51837   0.767   4.874   3.747  1.0823 -0.0641 -1.3024
  376DOPC  C21851838   0.889   5.053   3.749  1.2083 -0.0078  0.4310
  376DOPC  H18R51839   0.875   5.067   3.639  1.4167  0.4664  0.4635
  376DOPC  H18S51840   0.991   5.079   3.784  1.5877 -2.3775  1.2423
  376DOPC  H18T51841   0.818   5.126   3.793 -0.1592  0.7670 -2.7502
  376DOPC   C3351842   0.594   4.920   2.256 -0.7187 -0.0037 -0.1973
  376DOPC   H3X51843   0.604   4.818   2.300 -0.9359  0.0691  0.0233
  376DOPC   H3Y51844   0.504   4.916   2.192 -1.3556  0.9251  0.6210
  376DOPC   C3451845   0.579   5.032   2.353  0.2380  0.0152 -0.5669
  376DOPC   H4X51846   0.577   5.123   2.290 -1.3793  0.8719  0.6433
  376DOPC   H4Y51847   0.676   5.027   2.406  0.2508 -1.3766 -0.6796
  376DOPC   C3551848   0.456   5.022   2.443 -0.0900  0.2577 -0.2264
  376DOPC   H5X51849   0.366   5.007   2.378 -1.7277  0.8355  1.7911
  376DOPC   H5Y51850   0.432   5.122   2.485 -0.9991 -0.0011 -0.0988
  376DOPC   C3651851   0.471   4.917   2.549  0.2385 -0.2054 -0.3666
  376DOPC   H6X51852   0.496   4.817   2.507  0.4298 -0.5205  0.4719
  376DOPC   H6Y51853   0.555   4.955   2.611  1.2255 -1.7498 -0.6983
  376DOPC   C3751854   0.339   4.893   2.622 -0.4723 -0.0396  0.4952
  376DOPC   H7X51855   0.305   4.995   2.649  0.0398  0.7231 -1.5900
  376DOPC   H7Y51856   0.265   4.850   2.552 -0.7430 -0.1363  0.8360
  376DOPC   C3851857   0.365   4.796   2.738 -0.7511  0.3849  0.4357
  376DOPC   H8X51858   0.455   4.833   2.793 -0.2646  2.3271 -1.5489
  376DOPC   H8Y51859   0.406   4.698   2.706  0.9235  2.0058 -2.8562
  376DOPC   C3951860   0.240   4.790   2.818  0.0110 -0.2082 -0.0406
  376DOPC   H9X51861   0.216   4.885   2.868  0.8765  1.0954 -1.9597
  376DOPC  C31051862   0.151   4.690   2.831  0.0413 -0.2145 -0.1104
  376DOPC  H10X51863   0.057   4.713   2.884  0.0233 -2.0387  0.7094
  376DOPC  C31151864   0.166   4.552   2.775  0.4059  0.0390 -0.0460
  376DOPC  H11X51865   0.222   4.541   2.680 -1.3547 -2.4734 -0.9003
  376DOPC  H11Y51866   0.066   4.507   2.757  1.2254 -1.6529 -0.5887
  376DOPC  C31251867   0.254   4.467   2.872 -1.3756 -0.4698 -0.6607
  376DOPC  H12X51868   0.233   4.499   2.977 -0.3287 -1.9286  0.0310
  376DOPC  H12Y51869   0.360   4.493   2.855 -1.3782  0.0809  0.1145
  376DOPC  C31351870   0.221   4.321   2.844 -0.2379 -0.1758 -0.6550
  376DOPC  H13X51871   0.171   4.296   2.748  2.9241 -2.7543 -1.8402
  376DOPC  H13Y51872   0.308   4.255   2.863 -1.5081 -1.5650  0.6478
  376DOPC  C31451873   0.107   4.281   2.946 -0.7636 -0.0626  0.0235
  376DOPC  H14X51874   0.031   4.361   2.937 -1.0277 -0.3260 -0.1370
  376DOPC  H14Y51875   0.061   4.188   2.907 -2.0858  1.5566 -2.5894
  376DOPC  C31551876   0.163   4.259   3.090 -0.6541 -0.9440  0.6370
  376DOPC  H15X51877   0.188   4.357   3.136  1.7281 -1.3396  0.3090
  376DOPC  H15Y51878   0.257   4.202   3.077 -0.0508 -0.2896  2.0070
  376DOPC  C31651879   0.064   4.184   3.181 -0.5614  0.4760 -0.0941
  376DOPC  H16X51880  -0.033   4.234   3.161  0.1888  1.6040 -1.0162
  376DOPC  H16Y51881   0.048   4.083   3.138  0.0246  0.6725 -0.7908
  376DOPC  C31751882   0.107   4.178   3.331 -0.7132  0.4556  0.0101
  376DOPC  H17X51883   0.116   4.285   3.361  0.2797  0.4807 -0.3372
  376DOPC  H17Y51884   0.033   4.127   3.396  2.0535 -2.1040  1.3592
  376DOPC  C31851885   0.228   4.096   3.361 -0.0272  0.0517  0.1899
  376DOPC  H18X51886   0.221   4.073   3.470 -0.7486 -0.4790  0.0393
  376DOPC  H18Y51887   0.251   4.003   3.305 -1.9894 -1.5935  1.9068
  376DOPC  H18Z51888   0.320   4.157   3.346 -0.2150  0.6994  1.5138
  377DOPC     N51889   0.068  11.507   1.658  0.1280 -0.0044 -0.5692
  377DOPC   C1251890   0.064  11.523   1.807  1.0639  0.6910  0.9834
  377DOPC  H12A51891  -0.039  11.553   1.822 -0.2661 -3.2201  0.8036
  377DOPC  H12B51892   0.127  11.606   1.837  3.1949 -0.2151 -0.6963
  377DOPC   C1351893   0.016  11.639   1.600  0.9154  0.0900  0.2228
  377DOPC  H13A51894  -0.084  11.648   1.640  0.8131 -0.4505  0.0957
  377DOPC  H13B51895   0.075  11.725   1.625 -0.5359  0.7175  1.6518
  377DOPC  H13C51896   0.010  11.635   1.492  1.1634  1.2892  0.1501
  377DOPC   C1451897  -0.020  11.402   1.605 -0.1157 -0.4309  0.2914
  377DOPC  H14A51898  -0.040  11.322   1.674  1.2348  1.4662  3.0663
  377DOPC  H14B51899  -0.115  11.453   1.598  1.2972  2.4270  0.3952
  377DOPC  H14C51900  -0.005  11.369   1.504 -3.8716 -0.9575 -0.2219
  377DOPC   C1551901   0.210  11.497   1.616 -0.6687 -0.3613 -0.1875
  377DOPC  H15A51902   0.272  11.584   1.635 -0.3999 -0.1958 -1.7212
  377DOPC  H15B51903   0.216  11.463   1.514 -1.1284 -1.6283  0.1959
  377DOPC  H15C51904   0.257  11.410   1.658  0.3394 -0.0328 -0.5973
  377DOPC   C1151905   0.093  11.388   1.885 -0.6462  0.1922 -0.1881
  377DOPC  H11A51906   0.170  11.337   1.822 -0.2773  1.1181 -0.5021
  377DOPC  H11B51907   0.136  11.415   1.984  1.6903 -1.6164 -0.6104
  377DOPC     P51908  -0.121  11.311   1.995 -0.1049  0.5324 -0.5399
  377DOPC   O1351909  -0.180  11.176   2.026 -0.0501  0.8834  0.2918
  377DOPC   O1451910  -0.215  11.416   1.943 -0.2730  0.8244  0.0156
  377DOPC   O1251911  -0.011  11.297   1.890 -0.1235 -0.0049  0.3007
  377DOPC   O1151912  -0.049  11.383   2.120 -0.1371  0.1611 -0.4432
  377DOPC    C151913   0.030  11.309   2.211  0.2171  0.1221  0.1438
  377DOPC    HA51914   0.128  11.360   2.209  0.1754  0.6903  4.2242
  377DOPC    HB51915   0.041  11.200   2.194  0.7136 -0.3425  2.9400
  377DOPC    C251916  -0.023  11.318   2.355 -0.4641 -0.7449 -0.6270
  377DOPC    HS51917   0.062  11.276   2.414  0.3012  1.3026 -0.1997
  377DOPC   O2151918  -0.140  11.243   2.382 -0.1191 -0.8940 -0.4286
  377DOPC   C2151919  -0.133  11.117   2.383  0.1276  1.0513  0.0887
  377DOPC   O2251920  -0.037  11.050   2.356 -0.2717  0.5807 -0.2291
  377DOPC   C2251921  -0.270  11.064   2.429  0.1370  0.3324  0.2870
  377DOPC   H2R51922  -0.297  10.969   2.378 -0.1907  0.6888 -0.2042
  377DOPC   H2S51923  -0.351  11.131   2.395 -0.8653 -1.0310 -0.1206
  377DOPC    C351924  -0.036  11.465   2.393 -0.3248 -0.1303 -0.2695
  377DOPC    HX51925  -0.107  11.518   2.326  0.6491  2.3856  0.5543
  377DOPC    HY51926   0.051  11.533   2.383 -1.0062  0.8015  0.0520
  377DOPC   O3151927  -0.083  11.481   2.529  0.4275  0.8938  0.8577
  377DOPC   C3151928  -0.210  11.528   2.544 -0.4321 -0.4901  0.4518
  377DOPC   O3251929  -0.294  11.526   2.459  0.7823  0.0882  0.3991
  377DOPC   C3251930  -0.232  11.597   2.684  0.0942  0.1329  0.5558
  377DOPC   H2X51931  -0.139  11.602   2.744  0.1737  2.5617  0.3319
  377DOPC   H2Y51932  -0.248  11.705   2.663  0.9406  0.3887  1.1659
  377DOPC   C2351933  -0.274  11.061   2.582 -0.1646  0.1046  0.5149
  377DOPC   H3R51934  -0.383  11.051   2.601 -0.3050 -2.0358 -1.0789
  377DOPC   H3S51935  -0.247  11.165   2.608  2.4893 -0.6216  0.9816
  377DOPC   C2451936  -0.188  10.954   2.647  0.2460  0.6263  0.1983
  377DOPC   H4R51937  -0.088  10.965   2.601  0.5011  1.0874  0.8523
  377DOPC   H4S51938  -0.227  10.852   2.624 -1.7148  1.3332  0.1407
  377DOPC   C2551939  -0.179  10.966   2.801 -0.3661 -0.0164 -0.5716
  377DOPC   H5R51940  -0.272  10.914   2.834  0.1457 -0.7281 -0.2243
  377DOPC   H5S51941  -0.191  11.073   2.829 -0.7455 -0.1941 -0.0379
  377DOPC   C2651942  -0.048  10.897   2.848  0.4725 -0.0822  0.5253
  377DOPC   H6R51943   0.038  10.967   2.846 -0.0618  0.6574  1.9921
  377DOPC   H6S51944  -0.025  10.810   2.783  1.6917  0.6579 -0.0548
  377DOPC   C2751945  -0.059  10.860   2.998  0.8113  0.7760 -1.2184
  377DOPC   H7R51946  -0.149  10.797   3.014  1.0866  0.5392 -0.5578
  377DOPC   H7S51947  -0.067  10.959   3.048  0.4586  0.3690 -0.4474
  377DOPC   C2851948   0.059  10.779   3.048  0.3304 -0.2641 -0.8920
  377DOPC   H8R51949   0.150  10.824   3.002  0.5402  0.4961  0.2137
  377DOPC   H8S51950   0.036  10.674   3.021 -4.0351  0.5620 -1.1184
  377DOPC   C2951951   0.076  10.783   3.198  0.2863 -0.5629  0.0204
  377DOPC   H9R51952   0.004  10.731   3.263  0.7551 -0.7995  0.3545
  377DOPC  C21051953   0.174  10.854   3.258  0.2572  0.4864 -0.4682
  377DOPC  H10R51954   0.176  10.875   3.366 -0.9707  2.0611 -0.7203
  377DOPC  C21151955   0.287  10.932   3.199  0.0295 -0.2060  0.5396
  377DOPC  H11R51956   0.248  10.993   3.115 -0.9359 -2.5941 -0.8470
  377DOPC  H11S51957   0.362  10.862   3.154  0.6637  0.5680  0.3695
  377DOPC  C21251958   0.366  11.022   3.296 -0.4845 -0.1505 -0.1984
  377DOPC  H12R51959   0.422  10.959   3.370  0.9328  0.2272 -0.9103
  377DOPC  H12S51960   0.312  11.098   3.356  3.3647  1.7974  1.1307
  377DOPC  C21351961   0.477  11.103   3.224  0.0527  0.5749  0.2841
  377DOPC  H13R51962   0.429  11.182   3.162 -0.5298  0.7830  0.9886
  377DOPC  H13S51963   0.530  11.042   3.148  0.2897  0.2265  0.7253
  377DOPC  C21451964   0.588  11.152   3.319  0.2371  0.3382  0.9500
  377DOPC  H14R51965   0.672  11.181   3.251 -0.1894 -1.7420 -0.5492
  377DOPC  H14S51966   0.639  11.066   3.367 -0.2853 -0.4943  0.0465
  377DOPC  C21551967   0.544  11.256   3.423 -0.0581 -0.3410 -0.2535
  377DOPC  H15R51968   0.463  11.214   3.485  0.6004 -1.5692 -0.1893
  377DOPC  H15S51969   0.508  11.353   3.382  1.1605 -0.5885 -2.0201
  377DOPC  C21651970   0.652  11.300   3.527 -0.4009  0.3284 -0.6463
  377DOPC  H16R51971   0.742  11.332   3.470  0.2661  1.8636  1.1686
  377DOPC  H16S51972   0.681  11.210   3.585  1.1435  1.6565  0.7495
  377DOPC  C21751973   0.607  11.419   3.616 -1.1350 -0.6705 -0.2217
  377DOPC  H17R51974   0.507  11.393   3.656 -0.3193 -2.2848  0.8684
  377DOPC  H17S51975   0.604  11.507   3.548  1.9606 -1.7167 -1.9306
  377DOPC  C21851976   0.706  11.453   3.731 -0.0440 -0.0551  0.1547
  377DOPC  H18R51977   0.680  11.546   3.785  2.9386 -0.4714  2.6294
  377DOPC  H18S51978   0.811  11.480   3.705 -0.0935 -0.6456 -0.7114
  377DOPC  H18T51979   0.702  11.368   3.802 -0.2141 -0.0908  0.1022
  377DOPC   C3351980  -0.335  11.529   2.771 -0.0536  0.3599  0.0539
  377DOPC   H3X51981  -0.317  11.419   2.765 -0.2071  0.3479 -0.2220
  377DOPC   H3Y51982  -0.436  11.543   2.727 -0.5947  0.0283  1.1545
  377DOPC   C3451983  -0.322  11.579   2.914 -0.4561  0.3069 -0.5646
  377DOPC   H4X51984  -0.362  11.682   2.927 -1.0851 -0.2011  2.5250
  377DOPC   H4Y51985  -0.215  11.578   2.945 -1.0608 -2.3231  1.8914
  377DOPC   C3551986  -0.377  11.492   3.031 -0.1338 -0.0289  0.8267
  377DOPC   H5X51987  -0.350  11.384   3.023  0.2143  0.0656  0.7052
  377DOPC   H5Y51988  -0.487  11.501   3.020 -0.2478 -0.6306  1.3799
  377DOPC   C3651989  -0.347  11.555   3.172 -0.2556 -0.7414  0.6990
  377DOPC   H6X51990  -0.242  11.587   3.181 -0.2033 -0.7034  0.0307
  377DOPC   H6Y51991  -0.411  11.646   3.170 -1.3712 -1.4187 -3.0463
  377DOPC   C3751992  -0.380  11.452   3.277 -0.1289 -0.4823 -0.5472
  377DOPC   H7X51993  -0.336  11.353   3.251 -1.0900 -0.7686 -1.1156
  377DOPC   H7Y51994  -0.318  11.487   3.363 -0.1449 -2.9671  0.5632
  377DOPC   C3851995  -0.528  11.426   3.312 -0.3977 -0.8092  0.3815
  377DOPC   H8X51996  -0.533  11.343   3.386  0.1183 -2.7357 -1.6246
  377DOPC   H8Y51997  -0.588  11.364   3.241 -0.9766 -0.6210  0.6940
  377DOPC   C3951998  -0.613  11.538   3.375  0.5429 -0.3222 -0.6504
  377DOPC   H9X51999  -0.576  11.581   3.469 -0.5261  0.6893 -0.6696
  377DOPC  C31052000  -0.704  11.613   3.313  0.1909  0.7999  0.2373
  377DOPC  H10X52001  -0.737  11.699   3.373  2.1577  2.0429 -0.3444
  377DOPC  C31152002  -0.758  11.599   3.174 -0.4877 -0.0913 -0.2868
  377DOPC  H11X52003  -0.855  11.546   3.176 -0.0014 -0.9810  0.3368
  377DOPC  H11Y52004  -0.691  11.545   3.103 -1.0239 -0.4236 -0.5449
  377DOPC  C31252005  -0.794  11.740   3.113  0.0525 -0.1136 -0.0935
  377DOPC  H12X52006  -0.714  11.817   3.119  1.1305 -0.9094 -2.7010
  377DOPC  H12Y52007  -0.887  11.776   3.162  0.3994  0.7566 -0.0608
  377DOPC  C31352008  -0.838  11.730   2.964  0.4768 -0.3450 -0.4867
  377DOPC  H13X52009  -0.760  11.786   2.908  0.9752  0.8152  1.2957
  377DOPC  H13Y52010  -0.856  11.626   2.930  2.8994 -0.4259 -1.7676
  377DOPC  C31452011  -0.973  11.819   2.937  0.0208 -0.5561  0.5271
  377DOPC  H14X52012  -1.051  11.772   3.001 -0.8876 -1.5304 -1.2187
  377DOPC  H14Y52013  -0.956  11.917   2.987 -1.4069 -1.0656  2.1161
  377DOPC  C31552014  -1.026  11.822   2.787  0.6798 -0.0869 -0.5374
  377DOPC  H15X52015  -1.134  11.847   2.786  0.6451 -0.2148 -0.1630
  377DOPC  H15Y52016  -1.010  11.719   2.749 -0.6311 -0.9764  1.1992
  377DOPC  C31652017  -0.946  11.925   2.701  1.0423 -0.0227 -0.4029
  377DOPC  H16X52018  -0.976  12.031   2.720  0.1056 -0.1756 -0.9713
  377DOPC  H16Y52019  -0.836  11.925   2.716  1.0965 -1.4140 -0.6924
  377DOPC  C31752020  -0.960  11.903   2.546  0.1293 -0.1164  0.2865
  377DOPC  H17X52021  -0.911  11.989   2.496  0.2729 -0.3884 -0.0487
  377DOPC  H17Y52022  -0.898  11.814   2.522 -1.2644 -1.3715  1.1188
  377DOPC  C31852023  -1.104  11.903   2.491  0.0652  0.2885 -0.3489
  377DOPC  H18X52024  -1.164  11.987   2.532 -0.4927 -0.6497  0.8366
  377DOPC  H18Y52025  -1.096  11.911   2.381  1.5610  2.1913 -0.1499
  377DOPC  H18Z52026  -1.170  11.815   2.507 -2.0479  1.1594 -3.3912
  378DOPC     N52027   6.911   1.415   2.243 -0.2006  0.9962  0.4272
  378DOPC   C1252028   6.845   1.555   2.253  0.1859 -0.7260 -0.1309
  378DOPC  H12A52029   6.766   1.557   2.180  1.1544 -2.3526 -1.3027
  378DOPC  H12B52030   6.916   1.629   2.221 -0.0288 -0.4393  0.0575
  378DOPC   C1352031   6.941   1.401   2.098  0.8915 -0.5163 -0.0592
  378DOPC  H13A52032   6.968   1.497   2.057 -0.1728  0.2523  0.9855
  378DOPC  H13B52033   7.013   1.323   2.077 -0.5165 -1.8151 -0.2469
  378DOPC  H13C52034   6.849   1.366   2.052  1.6332 -1.1270 -1.1164
  378DOPC   C1452035   6.814   1.301   2.274  0.4780  0.1040  0.1628
  378DOPC  H14A52036   6.850   1.208   2.233  1.2264  0.8646 -0.9475
  378DOPC  H14B52037   6.801   1.279   2.379 -0.4508  1.6558  0.4024
  378DOPC  H14C52038   6.715   1.336   2.248 -0.8048 -1.2415  2.8159
  378DOPC   C1552039   7.036   1.399   2.324 -0.1436 -0.2083  0.2848
  378DOPC  H15A52040   7.011   1.382   2.428  0.8765 -1.9314  0.2952
  378DOPC  H15B52041   7.092   1.491   2.326  1.0272 -0.8957 -0.0453
  378DOPC  H15C52042   7.100   1.316   2.298  0.4904  0.9788 -2.3041
  378DOPC   C1152043   6.814   1.600   2.395  0.0852  0.4112  0.2956
  378DOPC  H11A52044   6.729   1.539   2.432  0.8465 -0.9041 -0.0551
  378DOPC  H11B52045   6.904   1.581   2.457 -0.8294 -1.5012  1.0944
  378DOPC     P52046   6.630   1.785   2.337 -0.4381  0.2571 -0.0473
  378DOPC   O1352047   6.546   1.671   2.303 -0.2276  0.0440  0.3442
  378DOPC   O1452048   6.662   1.873   2.223 -0.1757  0.4428  0.3643
  378DOPC   O1252049   6.774   1.738   2.396  0.2711 -0.3749  0.2489
  378DOPC   O1152050   6.560   1.882   2.452  0.0330  0.5394  0.2156
  378DOPC    C152051   6.520   1.828   2.584 -0.0665  0.3137  0.1741
  378DOPC    HA52052   6.514   1.717   2.574 -0.6032  0.4392 -1.0146
  378DOPC    HB52053   6.415   1.855   2.607  0.5246  1.3006  1.8991
  378DOPC    C252054   6.605   1.885   2.703  0.3763  0.0801 -0.0487
  378DOPC    HS52055   6.713   1.865   2.686  0.9366  1.3459  1.6981
  378DOPC   O2152056   6.556   1.820   2.823 -0.3010  0.8397  0.1722
  378DOPC   C2152057   6.634   1.810   2.924  0.0258 -0.1369  0.3101
  378DOPC   O2252058   6.748   1.844   2.922  0.0375  0.5407  0.2955
  378DOPC   C2252059   6.560   1.762   3.055  0.0149 -0.3818  0.2354
  378DOPC   H2R52060   6.534   1.656   3.033  0.0450 -0.6245  1.3341
  378DOPC   H2S52061   6.464   1.817   3.061 -2.5121 -4.0963 -1.5423
  378DOPC    C352062   6.587   2.042   2.714  0.9121 -0.1964  0.1614
  378DOPC    HX52063   6.482   2.058   2.746 -0.0565 -0.2783 -2.7437
  378DOPC    HY52064   6.595   2.083   2.612 -0.0252  0.4485  0.3313
  378DOPC   O3152065   6.694   2.104   2.791  0.0787  0.7545  0.1472
  378DOPC   C3152066   6.656   2.158   2.905 -0.5005 -0.3197 -0.3982
  378DOPC   O3252067   6.545   2.163   2.945  0.4091 -1.2444 -0.4371
  378DOPC   C3252068   6.780   2.205   2.983 -0.0112  0.5490 -0.4534
  378DOPC   H2X52069   6.801   2.121   3.052 -3.2567  0.2980  0.4106
  378DOPC   H2Y52070   6.871   2.215   2.922  0.8798 -0.4495  0.6736
  378DOPC   C2352071   6.643   1.765   3.184 -0.2545  0.2433  0.0958
  378DOPC   H3R52072   6.751   1.753   3.161 -0.5672  1.0816 -1.9954
  378DOPC   H3S52073   6.607   1.702   3.268 -0.9025 -0.9731 -1.0646
  378DOPC   C2452074   6.638   1.915   3.235  0.0352  0.0418 -0.0637
  378DOPC   H4R52075   6.534   1.949   3.253  0.2002  0.8019 -0.4909
  378DOPC   H4S52076   6.677   1.987   3.159  0.9653  0.5610  0.8751
  378DOPC   C2552077   6.721   1.922   3.361  0.2149  0.1383  0.1376
  378DOPC   H5R52078   6.822   1.878   3.344 -0.5179 -2.2063  1.3378
  378DOPC   H5S52079   6.676   1.852   3.434 -2.2128 -0.8579 -2.1537
  378DOPC   C2652080   6.733   2.061   3.422 -0.1562  0.7351 -0.2017
  378DOPC   H6R52081   6.757   2.146   3.354 -2.0555  2.6902  1.4384
  378DOPC   H6S52082   6.810   2.057   3.501  0.7592 -1.9715 -1.0984
  378DOPC   C2752083   6.606   2.113   3.493 -0.5487 -0.1125 -0.1047
  378DOPC   H7R52084   6.566   2.045   3.571  0.0691  1.1910  1.4158
  378DOPC   H7S52085   6.537   2.127   3.407  1.4008 -0.2966 -1.7836
  378DOPC   C2852086   6.632   2.248   3.566  1.0194  0.0316 -0.2960
  378DOPC   H8R52087   6.680   2.326   3.504 -0.7465  0.8976 -0.6438
  378DOPC   H8S52088   6.711   2.227   3.641  1.5178  1.3150 -0.4394
  378DOPC   C2952089   6.495   2.300   3.621  0.1058  0.0597  0.6559
  378DOPC   H9R52090   6.411   2.316   3.552  0.5492 -1.6942 -0.3423
  378DOPC  C21052091   6.467   2.315   3.747  0.1219 -0.2461 -0.7531
  378DOPC  H10R52092   6.377   2.365   3.786 -0.4409 -0.3474 -1.8786
  378DOPC  C21152093   6.568   2.279   3.857 -0.5063 -0.2270  0.4237
  378DOPC  H11R52094   6.561   2.351   3.942  0.8164  1.2729 -0.6896
  378DOPC  H11S52095   6.677   2.275   3.835 -0.3277 -0.3089  1.2718
  378DOPC  C21252096   6.535   2.144   3.917 -0.3421  0.1679  0.6135
  378DOPC  H12R52097   6.606   2.123   4.000  1.0071 -0.0236 -0.5416
  378DOPC  H12S52098   6.542   2.066   3.838  0.0789  0.4390  0.3804
  378DOPC  C21352099   6.388   2.139   3.975 -0.4323  0.2068  0.3619
  378DOPC  H13R52100   6.381   2.032   4.003  0.1122  0.0570 -0.0597
  378DOPC  H13S52101   6.308   2.155   3.900 -0.7579 -0.8588  0.4632
  378DOPC  C21452102   6.359   2.224   4.105 -1.2006 -0.5413 -0.1379
  378DOPC  H14R52103   6.375   2.331   4.079  1.4638 -0.4376  1.5849
  378DOPC  H14S52104   6.435   2.196   4.181  0.5967  0.0079 -1.6510
  378DOPC  C21552105   6.217   2.210   4.158 -0.0959  0.2342 -0.0729
  378DOPC  H15R52106   6.142   2.228   4.079  2.4549 -0.8905 -2.9674
  378DOPC  H15S52107   6.199   2.289   4.234  0.2800  1.3977 -1.1630
  378DOPC  C21652108   6.180   2.074   4.206 -0.4524  0.1393  0.3186
  378DOPC  H16R52109   6.248   2.054   4.291  0.6940  2.2882 -0.0453
  378DOPC  H16S52110   6.186   1.992   4.131 -5.1200 -0.0420 -0.1534
  378DOPC  C21752111   6.032   2.059   4.254  0.2049 -0.5528 -0.3015
  378DOPC  H17R52112   6.019   1.949   4.267  0.3579 -0.5260  0.1096
  378DOPC  H17S52113   5.962   2.103   4.180  1.4038  1.5995 -0.2117
  378DOPC  C21852114   5.998   2.125   4.392  0.0195  0.5759 -0.1187
  378DOPC  H18R52115   6.014   2.234   4.379 -3.1143  1.0930 -0.3571
  378DOPC  H18S52116   6.069   2.083   4.467  1.2741  2.2661 -0.2869
  378DOPC  H18T52117   5.894   2.104   4.424  1.1322 -2.2271  2.0973
  378DOPC   C3352118   6.747   2.330   3.070 -0.6794 -1.2470 -0.2543
  378DOPC   H3X52119   6.664   2.301   3.138 -1.1762 -1.3697 -0.8996
  378DOPC   H3Y52120   6.714   2.419   3.011  1.8550  1.0117  1.4849
  378DOPC   C3452121   6.866   2.375   3.162 -0.4029 -0.2833 -0.9980
  378DOPC   H4X52122   6.944   2.409   3.091  2.2189 -2.3640  0.6578
  378DOPC   H4Y52123   6.917   2.296   3.223  1.6130  1.2609 -0.5672
  378DOPC   C3552124   6.830   2.491   3.256 -0.1123 -0.0175  0.0472
  378DOPC   H5X52125   6.742   2.461   3.317 -0.8399  0.2545 -0.8364
  378DOPC   H5Y52126   6.806   2.585   3.201  3.3987  0.2659 -1.2400
  378DOPC   C3652127   6.932   2.537   3.365 -0.6745  0.3466  0.1714
  378DOPC   H6X52128   6.986   2.457   3.419  0.7988  0.3643 -1.1712
  378DOPC   H6Y52129   7.018   2.589   3.317  0.9924 -0.2470  2.3715
  378DOPC   C3752130   6.864   2.638   3.457 -0.1450  0.6097  0.1735
  378DOPC   H7X52131   6.828   2.731   3.408  0.6391  1.5802  1.3699
  378DOPC   H7Y52132   6.776   2.577   3.486  1.4043 -1.0582  1.5922
  378DOPC   C3852133   6.941   2.673   3.593  0.0826 -0.4150  0.0737
  378DOPC   H8X52134   7.030   2.730   3.557  0.5087 -2.4078 -2.3200
  378DOPC   H8Y52135   6.975   2.580   3.643 -0.2816 -1.2587 -1.2074
  378DOPC   C3952136   6.869   2.760   3.697  0.0854  0.3915  0.7104
  378DOPC   H9X52137   6.867   2.867   3.671 -0.2513  0.1072 -0.5144
  378DOPC  C31052138   6.800   2.718   3.801  0.3208  0.4342 -0.2957
  378DOPC  H10X52139   6.757   2.793   3.868 -1.1918 -0.6573  0.0134
  378DOPC  C31152140   6.771   2.574   3.828 -0.1029 -0.9381  0.4777
  378DOPC  H11X52141   6.800   2.506   3.745 -1.8092 -0.2835 -0.7001
  378DOPC  H11Y52142   6.662   2.565   3.849 -0.1374 -0.4800  0.5003
  378DOPC  C31252143   6.831   2.519   3.962 -0.0955 -0.1268  0.5922
  378DOPC  H12X52144   6.778   2.424   3.982  1.1638 -1.8277 -3.2294
  378DOPC  H12Y52145   6.808   2.597   4.037 -1.0884  1.0027 -0.8233
  378DOPC  C31352146   6.980   2.492   3.965 -0.0197 -0.3965 -0.1267
  378DOPC  H13X52147   7.020   2.457   3.867  0.6710 -2.7409  0.9235
  378DOPC  H13Y52148   7.040   2.586   3.964 -1.6939  0.7084 -1.1826
  378DOPC  C31452149   7.033   2.395   4.076  0.4153 -0.2231 -0.2299
  378DOPC  H14X52150   7.022   2.292   4.035 -0.4391  0.5693 -2.1408
  378DOPC  H14Y52151   7.142   2.411   4.081  0.2209  1.3841 -0.5860
  378DOPC  C31552152   6.971   2.406   4.217  0.0825 -0.1486 -0.3516
  378DOPC  H15X52153   6.970   2.513   4.247 -1.9286 -0.2351  0.0428
  378DOPC  H15Y52154   7.044   2.349   4.278  1.4527 -1.9508 -3.4186
  378DOPC  C31652155   6.839   2.348   4.251  0.5296  0.7264 -0.0981
  378DOPC  H16X52156   6.830   2.364   4.361  0.5691  1.3337 -0.1813
  378DOPC  H16Y52157   6.758   2.403   4.198 -1.6145  0.5008  2.6744
  378DOPC  C31752158   6.824   2.203   4.205  0.1901  0.2707  0.6293
  378DOPC  H17X52159   6.790   2.203   4.099  0.8879  0.5004  0.3952
  378DOPC  H17Y52160   6.927   2.160   4.207  0.8092  1.5611 -1.1042
  378DOPC  C31852161   6.739   2.126   4.298  0.3893 -0.0689  0.7106
  378DOPC  H18X52162   6.722   2.025   4.255 -0.1018 -0.8427  2.5865
  378DOPC  H18Y52163   6.789   2.124   4.397 -0.6514 -0.6711  1.2478
  378DOPC  H18Z52164   6.638   2.171   4.294  0.7879  0.8350  0.6078
  379DOPC     N52165   7.359  10.031   2.125 -0.4253 -0.1784  0.2695
  379DOPC   C1252166   7.253   9.924   2.119 -0.0555 -0.2848  0.4893
  379DOPC  H12A52167   7.294   9.826   2.134 -0.3887 -0.0029  4.1940
  379DOPC  H12B52168   7.201   9.930   2.025 -1.4796 -3.2046  0.9668
  379DOPC   C1352169   7.413  10.054   2.266 -0.6601 -0.7746 -0.6522
  379DOPC  H13A52170   7.341  10.105   2.329  0.7358 -2.5642  2.6542
  379DOPC  H13B52171   7.439   9.965   2.321  1.6074  1.2478  1.8222
  379DOPC  H13C52172   7.509  10.104   2.267  0.1380 -2.2379 -0.9674
  379DOPC   C1452173   7.296  10.169   2.096 -0.5389  0.3452 -0.1804
  379DOPC  H14A52174   7.226  10.187   2.175 -1.7900 -3.2423 -0.2887
  379DOPC  H14B52175   7.372  10.243   2.117  0.6439 -0.4038 -1.5986
  379DOPC  H14C52176   7.242  10.178   2.003 -1.7823  0.4920  0.5371
  379DOPC   C1552177   7.466  10.005   2.024  0.4832 -0.2424  0.1156
  379DOPC  H15A52178   7.509   9.906   2.030 -0.8868 -0.7789  1.7272
  379DOPC  H15B52179   7.543  10.076   2.048 -0.2889  0.6016  0.1256
  379DOPC  H15C52180   7.429  10.022   1.924 -2.6740  2.2174  1.5532
  379DOPC   C1152181   7.134   9.933   2.219  0.3029 -0.0703  0.2482
  379DOPC  H11A52182   7.070   9.842   2.213 -2.3001  1.7149 -1.9947
  379DOPC  H11B52183   7.184   9.948   2.317 -1.2149  1.2759  0.8655
  379DOPC     P52184   6.928  10.051   2.097  0.0167 -0.1346 -0.0549
  379DOPC   O1352185   6.995  10.021   1.965 -0.2463  0.0164  0.4097
  379DOPC   O1452186   6.862  10.188   2.102  0.0393  0.4087 -0.6757
  379DOPC   O1252187   7.044  10.045   2.201 -0.2622 -0.6060 -0.3178
  379DOPC   O1152188   6.830   9.934   2.122  0.1302  0.4656 -0.6110
  379DOPC    C152189   6.789   9.880   2.252 -0.1466 -0.2193 -0.6481
  379DOPC    HA52190   6.876   9.871   2.320 -2.3786  0.8098  2.5739
  379DOPC    HB52191   6.752   9.781   2.220 -1.3136  0.7309 -2.4376
  379DOPC    C252192   6.673   9.955   2.320 -0.4170  0.4106  0.5328
  379DOPC    HS52193   6.613  10.007   2.242 -1.3567  1.3575  1.8581
  379DOPC   O2152194   6.719  10.065   2.401 -0.2174 -0.7112 -0.6300
  379DOPC   C2152195   6.624  10.148   2.435 -1.0719 -0.5945 -0.4418
  379DOPC   O2252196   6.512  10.147   2.390  0.0155  0.4555  0.2397
  379DOPC   C2252197   6.681  10.251   2.539  0.0801  0.1561 -0.3964
  379DOPC   H2R52198   6.768  10.298   2.488  1.1903 -2.1683 -0.7905
  379DOPC   H2S52199   6.710  10.195   2.630 -0.6555  2.4865  1.3731
  379DOPC    C352200   6.577   9.862   2.398  0.0422  0.1743 -0.0289
  379DOPC    HX52201   6.549   9.790   2.319  1.7561 -0.5806 -0.0078
  379DOPC    HY52202   6.488   9.911   2.442  0.2382 -1.1074  1.9371
  379DOPC   O3152203   6.660   9.793   2.501  0.0124  0.5668  0.7613
  379DOPC   C3152204   6.655   9.845   2.623  0.1209  0.0101  0.2012
  379DOPC   O3252205   6.592   9.942   2.654  0.1948 -0.7414  0.1116
  379DOPC   C3252206   6.738   9.757   2.714 -0.3644 -0.2440 -0.3928
  379DOPC   H2X52207   6.762   9.658   2.669  0.3104  0.1090 -0.8240
  379DOPC   H2Y52208   6.829   9.810   2.749 -0.1966 -1.0900  0.5121
  379DOPC   C2352209   6.571  10.359   2.581 -0.7581  0.2423  0.6504
  379DOPC   H3R52210   6.529  10.384   2.481  1.8397  0.5593 -0.4338
  379DOPC   H3S52211   6.626  10.446   2.624  0.7173 -0.9435  1.2306
  379DOPC   C2452212   6.463  10.317   2.680  0.6643 -0.0017 -0.6440
  379DOPC   H4R52213   6.453  10.206   2.692 -1.3216  0.2890  1.1225
  379DOPC   H4S52214   6.366  10.345   2.634 -0.2186 -1.7375  0.0522
  379DOPC   C2552215   6.469  10.372   2.822  0.0094 -0.3463 -0.6753
  379DOPC   H5R52216   6.433  10.477   2.834  2.2866  0.2550  1.8386
  379DOPC   H5S52217   6.571  10.364   2.865  0.1051  3.1395  0.0208
  379DOPC   C2652218   6.391  10.295   2.934 -0.3467 -0.4010  0.6543
  379DOPC   H6R52219   6.417  10.351   3.026 -0.1675  0.6538 -0.0111
  379DOPC   H6S52220   6.418  10.189   2.948 -1.1525 -0.9598 -1.5648
  379DOPC   C2752221   6.235  10.300   2.928 -0.6428 -1.2346 -0.1803
  379DOPC   H7R52222   6.200  10.278   2.825  0.6051  1.2670 -1.2367
  379DOPC   H7S52223   6.203  10.407   2.932 -0.1093 -1.0497 -0.7127
  379DOPC   C2852224   6.163  10.212   3.035 -0.0976 -0.0569  0.3113
  379DOPC   H8R52225   6.193  10.107   3.014  1.9459 -0.3970  4.0913
  379DOPC   H8S52226   6.053  10.224   3.022  0.1716  0.9218 -1.3836
  379DOPC   C2952227   6.190  10.253   3.177  0.0100  0.0047 -0.5033
  379DOPC   H9R52228   6.148  10.349   3.211  2.0436  0.2594  1.5051
  379DOPC  C21052229   6.258  10.179   3.262 -0.5353  0.1194  0.5926
  379DOPC  H10R52230   6.256  10.226   3.362 -0.1378  2.0493 -0.2445
  379DOPC  C21152231   6.329  10.055   3.233  0.1454 -0.0414  0.5105
  379DOPC  H11R52232   6.417  10.056   3.300  0.2241 -0.0657  0.4067
  379DOPC  H11S52233   6.369  10.056   3.129 -0.8696  1.5778  0.1004
  379DOPC  C21252234   6.254   9.922   3.246  0.6437  0.3793 -0.1008
  379DOPC  H12R52235   6.331   9.844   3.230  1.1810  1.3252 -2.4491
  379DOPC  H12S52236   6.180   9.918   3.164 -1.2704 -2.3391  1.5857
  379DOPC  C21352237   6.177   9.906   3.379 -0.0670  0.5933  0.7256
  379DOPC  H13R52238   6.220   9.982   3.448  0.9849  0.4521  0.2576
  379DOPC  H13S52239   6.213   9.806   3.411 -0.9757 -0.1159 -0.3936
  379DOPC  C21452240   6.024   9.902   3.362  0.1833 -0.2725  0.8485
  379DOPC  H14R52241   5.991   9.834   3.281 -0.6322  0.0394  0.9098
  379DOPC  H14S52242   5.984   9.995   3.316 -0.2330 -2.0620 -2.7730
  379DOPC  C21552243   5.960   9.865   3.496 -0.1088  0.3928  0.1432
  379DOPC  H15R52244   6.011   9.922   3.577  0.8323 -0.9316  0.5041
  379DOPC  H15S52245   5.970   9.758   3.522  1.6634  0.4253 -0.2495
  379DOPC  C21652246   5.808   9.897   3.505  0.3662  0.6811  0.8995
  379DOPC  H16R52247   5.763   9.861   3.410  2.5040  0.5530 -0.1201
  379DOPC  H16S52248   5.796  10.004   3.530  1.1372  0.6867  1.2830
  379DOPC  C21752249   5.735   9.821   3.610  0.0013 -0.3721 -0.4044
  379DOPC  H17R52250   5.755   9.712   3.595 -3.2193 -1.2955  1.0659
  379DOPC  H17S52251   5.626   9.837   3.591 -0.2232 -1.5380 -0.2016
  379DOPC  C21852252   5.777   9.860   3.756  0.4583 -0.1046  0.6643
  379DOPC  H18R52253   5.884   9.840   3.778  1.0143 -2.0252 -2.9558
  379DOPC  H18S52254   5.716   9.814   3.837 -2.1769  2.4247  0.2856
  379DOPC  H18T52255   5.764   9.969   3.767  0.0021  0.1383 -1.7317
  379DOPC   C3352256   6.655   9.721   2.842  0.0244 -0.3864  0.2915
  379DOPC   H3X52257   6.710   9.637   2.889  1.0983 -0.0447 -0.3024
  379DOPC   H3Y52258   6.557   9.683   2.806 -1.0015  3.4882 -1.4676
  379DOPC   C3452259   6.656   9.844   2.933 -0.1218  0.3512 -0.0980
  379DOPC   H4X52260   6.602   9.933   2.894  0.1725  0.3854 -0.4355
  379DOPC   H4Y52261   6.765   9.860   2.946 -0.3141  2.1212 -0.3120
  379DOPC   C3552262   6.597   9.821   3.072 -0.0646 -0.2661 -0.6878
  379DOPC   H5X52263   6.498   9.780   3.044 -0.1542 -0.7230  0.2541
  379DOPC   H5Y52264   6.574   9.918   3.122 -0.5994 -0.5705 -0.3328
  379DOPC   C3652265   6.672   9.740   3.178 -0.1607  0.1952 -0.3342
  379DOPC   H6X52266   6.602   9.724   3.262  0.3654 -0.6870 -0.0571
  379DOPC   H6Y52267   6.693   9.643   3.128 -0.0153 -0.0997  0.2966
  379DOPC   C3752268   6.794   9.812   3.233  0.2760  0.0631 -0.6595
  379DOPC   H7X52269   6.807   9.911   3.185 -0.7018 -0.1172 -1.3309
  379DOPC   H7Y52270   6.796   9.830   3.342 -0.9888  1.8197 -0.8750
  379DOPC   C3852271   6.921   9.730   3.190 -0.0265 -0.4264  0.3623
  379DOPC   H8X52272   6.896   9.709   3.084  1.4674  1.3181 -0.3841
  379DOPC   H8Y52273   6.906   9.633   3.243 -0.9308 -0.2614  0.4147
  379DOPC   C3952274   7.058   9.805   3.212 -0.4524  1.2644  0.3977
  379DOPC   H9X52275   7.058   9.909   3.177 -2.1481  1.6579  1.4381
  379DOPC  C31052276   7.165   9.755   3.273 -0.3593 -0.0636  0.2699
  379DOPC  H10X52277   7.254   9.819   3.278  0.5431 -1.2556 -0.0714
  379DOPC  C31152278   7.196   9.615   3.320 -0.0012  0.1193 -0.1148
  379DOPC  H11X52279   7.124   9.542   3.277  1.5324 -2.1172  0.9233
  379DOPC  H11Y52280   7.180   9.607   3.430  1.5839  1.4572  0.2541
  379DOPC  C31252281   7.340   9.564   3.292  0.4602 -0.2672 -0.5236
  379DOPC  H12X52282   7.416   9.598   3.366  0.1999 -2.7676  1.0148
  379DOPC  H12Y52283   7.367   9.605   3.193  0.4321 -1.0690 -0.8773
  379DOPC  C31352284   7.352   9.409   3.307  0.6815  0.1683 -0.3111
  379DOPC  H13X52285   7.303   9.346   3.229  1.9528 -0.5724 -0.5500
  379DOPC  H13Y52286   7.458   9.375   3.306 -0.2769 -3.1493 -0.4837
  379DOPC  C31452287   7.296   9.358   3.446 -0.3544  0.3124  0.6631
  379DOPC  H14X52288   7.342   9.413   3.531  2.8300 -0.1118 -0.6368
  379DOPC  H14Y52289   7.186   9.372   3.444 -0.5536 -1.1154 -1.5387
  379DOPC  C31552290   7.340   9.216   3.462 -0.1697  0.2764  0.4988
  379DOPC  H15X52291   7.450   9.214   3.446 -0.3248 -0.0206 -0.5616
  379DOPC  H15Y52292   7.289   9.156   3.384  0.4848  0.5764 -0.1666
  379DOPC  C31652293   7.328   9.162   3.606  0.0016  0.4427  0.7661
  379DOPC  H16X52294   7.414   9.200   3.664  1.3962 -0.6980 -0.4548
  379DOPC  H16Y52295   7.227   9.193   3.641 -1.2254 -0.2031 -1.9000
  379DOPC  C31752296   7.342   9.012   3.609 -0.3020 -0.0329  0.0221
  379DOPC  H17X52297   7.261   8.964   3.551  1.2038 -0.1668 -2.0767
  379DOPC  H17Y52298   7.441   8.987   3.565 -0.0828 -0.6506  0.8363
  379DOPC  C31852299   7.337   8.958   3.759  0.1036 -0.0462 -0.5777
  379DOPC  H18X52300   7.350   8.848   3.761  1.4681  0.0678  2.0718
  379DOPC  H18Y52301   7.422   9.000   3.817  0.3582  0.1939 -1.1212
  379DOPC  H18Z52302   7.241   8.980   3.809  0.7351  1.5758  0.0051
  380DOPC     N52303   9.896   2.929   2.253  0.6504  0.4368 -0.0729
  380DOPC   C1252304  10.034   2.976   2.273 -0.5422 -0.5978 -0.7172
  380DOPC  H12A52305  10.026   3.079   2.242 -1.4824 -0.8294 -1.2795
  380DOPC  H12B52306  10.099   2.928   2.201 -0.9961  2.0754 -3.0802
  380DOPC   C1352307   9.874   2.954   2.106  0.3643 -0.4899  0.4720
  380DOPC  H13A52308   9.945   2.890   2.054  0.9965 -1.1606  2.0972
  380DOPC  H13B52309   9.774   2.918   2.088  0.6523 -1.1167  0.0847
  380DOPC  H13C52310   9.885   3.056   2.072  2.1284 -0.4726  0.9708
  380DOPC   C1452311   9.803   3.022   2.332 -0.3512  0.7382  0.4158
  380DOPC  H14A52312   9.813   3.122   2.293  1.2281 -0.0596 -1.3585
  380DOPC  H14B52313   9.699   2.993   2.339 -0.3730  0.7666  0.2073
  380DOPC  H14C52314   9.836   3.027   2.435  0.7336  0.2417  0.1058
  380DOPC   C1552315   9.871   2.788   2.283  0.2358  0.3598  0.0853
  380DOPC  H15A52316   9.898   2.761   2.385 -1.7043 -0.3359  0.4492
  380DOPC  H15B52317   9.910   2.715   2.213  0.3015 -2.0780  2.4763
  380DOPC  H15C52318   9.765   2.773   2.277  0.1121 -0.0766  2.4474
  380DOPC   C1152319  10.094   2.962   2.410 -0.0777 -0.2599 -0.0399
  380DOPC  H11A52320  10.023   2.993   2.490 -0.3894 -0.0867 -0.3783
  380DOPC  H11B52321  10.121   2.855   2.414 -0.8462 -0.4569  0.1425
  380DOPC     P52322  10.331   3.019   2.353  0.7508 -0.2375  0.2513
  380DOPC   O1352323  10.299   3.010   2.209 -0.3057 -0.4241  0.0507
  380DOPC   O1452324  10.398   2.899   2.411 -0.2784  0.0200  0.4580
  380DOPC   O1252325  10.200   3.053   2.430  0.8939 -0.3661  0.7488
  380DOPC   O1152326  10.406   3.155   2.384  0.0903 -0.0652 -0.0433
  380DOPC    C152327  10.329   3.272   2.341  0.3374  0.4820 -0.1306
  380DOPC    HA52328  10.264   3.301   2.426 -0.6048 -1.4419 -0.1325
  380DOPC    HB52329  10.255   3.255   2.260  1.3853 -0.7021 -0.8740
  380DOPC    C252330  10.428   3.380   2.310  0.2891 -1.1475  0.2324
  380DOPC    HS52331  10.473   3.356   2.211 -0.2745 -0.1421 -0.2804
  380DOPC   O2152332  10.513   3.408   2.422  0.0292  0.1464 -0.9381
  380DOPC   C2152333  10.619   3.477   2.391 -0.2747  0.6313  0.1156
  380DOPC   O2252334  10.658   3.513   2.282 -0.2893 -0.1417 -0.4458
  380DOPC   C2252335  10.680   3.526   2.524 -0.4016 -0.5217 -0.3573
  380DOPC   H2R52336  10.752   3.447   2.554 -0.3302 -2.4920 -4.9314
  380DOPC   H2S52337  10.600   3.526   2.602 -0.2097 -0.2501 -0.1575
  380DOPC    C352338  10.345   3.510   2.281 -0.5442 -0.1751 -0.3803
  380DOPC    HX52339  10.268   3.507   2.201 -3.0039  2.1501  1.6702
  380DOPC    HY52340  10.424   3.582   2.250 -0.9458  0.3562 -0.1979
  380DOPC   O3152341  10.269   3.545   2.401 -0.5061 -0.0015  0.2454
  380DOPC   C3152342  10.330   3.637   2.474  0.6134 -0.3395 -0.1197
  380DOPC   O3252343  10.429   3.699   2.442  0.0647 -0.0541 -0.0342
  380DOPC   C3252344  10.250   3.641   2.610 -0.2595 -0.3900 -0.0697
  380DOPC   H2X52345  10.149   3.674   2.578  0.0118 -1.4457 -2.2146
  380DOPC   H2Y52346  10.252   3.539   2.654 -1.1902  0.4206  1.9834
  380DOPC   C2352347  10.743   3.667   2.510 -0.2701 -0.5849 -0.3985
  380DOPC   H3R52348  10.661   3.739   2.493 -0.8207 -1.0441  0.2426
  380DOPC   H3S52349  10.810   3.666   2.422 -1.0525 -3.1317 -1.0581
  380DOPC   C2452350  10.816   3.712   2.641 -0.0456 -0.5285 -0.2443
  380DOPC   H4R52351  10.854   3.814   2.621  1.4798 -1.3567 -1.9784
  380DOPC   H4S52352  10.907   3.648   2.637  0.3648  0.0785 -0.7531
  380DOPC   C2552353  10.737   3.688   2.770  0.3329 -0.3011 -0.6535
  380DOPC   H5R52354  10.735   3.577   2.779  1.0456 -0.3594 -1.1024
  380DOPC   H5S52355  10.636   3.729   2.751 -1.7204 -4.3032  0.6325
  380DOPC   C2652356  10.807   3.732   2.908  0.2396 -0.6300  0.4619
  380DOPC   H6R52357  10.895   3.665   2.913  1.8541  1.0704 -2.3629
  380DOPC   H6S52358  10.748   3.717   3.000 -0.3638  0.1978  0.2262
  380DOPC   C2752359  10.862   3.879   2.925  0.0789 -0.4114  0.4091
  380DOPC   H7R52360  10.775   3.947   2.939 -0.3464 -0.7925 -0.3662
  380DOPC   H7S52361  10.912   3.915   2.832 -0.9200 -1.2835 -0.4933
  380DOPC   C2852362  10.945   3.902   3.054  0.1262 -0.8482 -0.2915
  380DOPC   H8R52363  10.883   3.888   3.145  2.0210 -2.9069  0.7819
  380DOPC   H8S52364  10.971   4.010   3.049  0.4324 -0.9600 -2.3820
  380DOPC   C2952365  11.080   3.824   3.057 -0.2205 -0.5002  0.5023
  380DOPC   H9R52366  11.137   3.825   2.963 -1.9599 -1.0733 -0.6122
  380DOPC  C21052367  11.128   3.750   3.164 -0.3629 -0.0132 -0.0631
  380DOPC  H10R52368  11.228   3.706   3.158 -0.5451 -0.4965  0.3362
  380DOPC  C21152369  11.058   3.723   3.290 -0.3182  0.7699 -0.1309
  380DOPC  H11R52370  10.991   3.635   3.288  0.4885  0.1195  0.7467
  380DOPC  H11S52371  10.984   3.806   3.301  0.7122  2.0787 -2.4601
  380DOPC  C21252372  11.144   3.709   3.418 -0.3229 -0.7011  0.3448
  380DOPC  H12R52373  11.231   3.778   3.418 -2.2829  1.9634 -0.7984
  380DOPC  H12S52374  11.185   3.606   3.414  2.8250  0.4898 -2.3308
  380DOPC  C21352375  11.067   3.734   3.549  0.5086  0.3856 -0.1970
  380DOPC  H13R52376  11.022   3.834   3.565 -1.0912 -0.3206 -0.1387
  380DOPC  H13S52377  11.140   3.719   3.631 -0.2124 -2.6791  0.0157
  380DOPC  C21452378  10.947   3.632   3.565 -0.6662 -0.1797  0.2896
  380DOPC  H14R52379  10.980   3.529   3.538  0.6480  0.4634 -0.7069
  380DOPC  H14S52380  10.860   3.655   3.500  0.5981  2.1532 -0.6959
  380DOPC  C21552381  10.880   3.629   3.704  0.7082  0.4669 -0.5326
  380DOPC  H15R52382  10.944   3.559   3.762 -0.5855  1.5256  2.3596
  380DOPC  H15S52383  10.778   3.585   3.702  0.6026  0.5264  1.2881
  380DOPC  C21652384  10.873   3.762   3.769 -0.4147 -0.1328 -0.7179
  380DOPC  H16R52385  10.804   3.834   3.720 -1.0974 -0.0051  0.4009
  380DOPC  H16S52386  10.973   3.809   3.771  0.0487 -1.0819 -0.8588
  380DOPC  C21752387  10.815   3.752   3.915  0.6327 -0.3559  0.3227
  380DOPC  H17R52388  10.707   3.733   3.904  0.4559  0.6785  0.1516
  380DOPC  H17S52389  10.830   3.851   3.963 -1.5703  0.3874 -0.4336
  380DOPC  C21852390  10.888   3.646   4.005 -0.3163 -0.3983  0.2490
  380DOPC  H18R52391  10.858   3.654   4.111  0.5648 -0.8327  0.5377
  380DOPC  H18S52392  10.995   3.675   4.010 -0.3217  0.1323 -1.7752
  380DOPC  H18T52393  10.868   3.546   3.960 -0.9083 -0.0944 -0.1840
  380DOPC   C3352394  10.314   3.733   2.713  0.2588  0.4840 -0.3140
  380DOPC   H3X52395  10.356   3.825   2.667  0.4822  0.1449 -0.7944
  380DOPC   H3Y52396  10.410   3.683   2.739 -0.8260 -0.9023  1.1641
  380DOPC   C3452397  10.235   3.762   2.838  0.3849  0.1062 -0.0077
  380DOPC   H4X52398  10.184   3.861   2.834 -3.7742 -1.7668  1.5913
  380DOPC   H4Y52399  10.298   3.770   2.929 -1.4419  1.7539  1.1928
  380DOPC   C3552400  10.133   3.646   2.874 -0.3499  0.4734 -0.0112
  380DOPC   H5X52401  10.192   3.553   2.881 -1.4024 -0.3209 -1.2704
  380DOPC   H5Y52402  10.059   3.631   2.793 -0.6112  0.3191  0.2535
  380DOPC   C3652403  10.063   3.662   3.012 -1.1496  0.1059  0.2198
  380DOPC   H6X52404  10.010   3.760   3.003  1.9115  2.1611  2.4776
  380DOPC   H6Y52405   9.989   3.580   3.021 -2.5479  1.1118 -1.4838
  380DOPC   C3752406  10.155   3.663   3.140  0.1217 -0.0416 -0.1876
  380DOPC   H7X52407  10.217   3.571   3.151 -0.2517 -0.1727  1.0064
  380DOPC   H7Y52408  10.222   3.748   3.118  0.9008 -0.0274  2.0217
  380DOPC   C3852409  10.081   3.702   3.272  0.0618  0.3099 -0.6729
  380DOPC   H8X52410  10.007   3.781   3.250 -0.4245  0.8430  2.4777
  380DOPC   H8Y52411  10.157   3.736   3.345  2.1903  2.2137 -3.5261
  380DOPC   C3952412  10.010   3.575   3.323 -0.4618  0.2294  0.5234
  380DOPC   H9X52413  10.069   3.483   3.335  0.4576  1.0691  3.0777
  380DOPC  C31052414   9.883   3.563   3.365 -0.3366 -0.3033  0.8836
  380DOPC  H10X52415   9.847   3.464   3.395  0.7552 -1.7971 -2.3824
  380DOPC  C31152416   9.777   3.671   3.352  0.4743  0.1935  0.2235
  380DOPC  H11X52417   9.791   3.720   3.253 -1.0700 -0.8977 -0.5747
  380DOPC  H11Y52418   9.794   3.742   3.436  1.0115  1.0541 -0.5841
  380DOPC  C31252419   9.627   3.616   3.349  0.1053  0.5101 -0.0453
  380DOPC  H12X52420   9.623   3.508   3.324  0.7441  0.1892  1.1473
  380DOPC  H12Y52421   9.562   3.679   3.284  0.0973  1.5937  0.9784
  380DOPC  C31352422   9.574   3.606   3.496  0.4339  0.3949  0.6937
  380DOPC  H13X52423   9.590   3.698   3.555 -1.1094  0.9072  0.3646
  380DOPC  H13Y52424   9.463   3.599   3.491  0.3659  1.8190 -0.4727
  380DOPC  C31452425   9.623   3.479   3.577 -0.1036  0.1073  0.3049
  380DOPC  H14X52426   9.591   3.387   3.523  0.5875  1.4719 -2.5776
  380DOPC  H14Y52427   9.734   3.472   3.584 -0.0686  0.9595  0.6582
  380DOPC  C31552428   9.571   3.470   3.720  0.1674  0.1207 -0.3746
  380DOPC  H15X52429   9.461   3.485   3.720 -0.0879 -1.3330 -2.1493
  380DOPC  H15Y52430   9.613   3.554   3.779 -1.2752  1.5186 -1.2616
  380DOPC  C31652431   9.611   3.339   3.781  0.2417  0.1724 -0.6240
  380DOPC  H16X52432   9.570   3.249   3.732 -1.2068  0.1607  0.5407
  380DOPC  H16Y52433   9.723   3.339   3.782  0.2655 -0.1634  1.1842
  380DOPC  C31752434   9.578   3.325   3.931  0.2371 -0.6282  0.3308
  380DOPC  H17X52435   9.641   3.389   3.996 -0.9611 -0.4953  1.4007
  380DOPC  H17Y52436   9.480   3.379   3.937 -0.2122 -1.4400  0.4343
  380DOPC  C31852437   9.563   3.183   3.982  0.5386  0.9533 -0.2808
  380DOPC  H18X52438   9.497   3.116   3.923 -0.0652  1.8594 -0.6553
  380DOPC  H18Y52439   9.660   3.129   3.980 -0.0064 -0.1524  1.2257
  380DOPC  H18Z52440   9.523   3.184   4.086  1.1207 -1.2527  0.0083
  381DOPC     N52441   9.946   3.433   1.448 -0.4928 -0.1585  0.1337
  381DOPC   C1252442   9.903   3.530   1.548 -0.2486 -0.6197 -0.0286
  381DOPC  H12A52443   9.799   3.515   1.571  0.0212 -1.4561  0.7277
  381DOPC  H12B52444   9.908   3.630   1.508  0.5510 -1.4465 -2.2056
  381DOPC   C1352445  10.086   3.455   1.392  0.2246 -0.0273  0.3908
  381DOPC  H13A52446  10.082   3.538   1.323 -0.1376 -1.1955 -1.0466
  381DOPC  H13B52447  10.164   3.478   1.463  2.9735 -0.5242 -2.2261
  381DOPC  H13C52448  10.117   3.380   1.320  2.5916 -0.0666  1.3561
  381DOPC   C1452449   9.861   3.442   1.323  0.0043 -0.4917  0.1705
  381DOPC  H14A52450   9.904   3.372   1.252  2.3246  1.0663 -0.0875
  381DOPC  H14B52451   9.759   3.407   1.327 -0.1328 -0.2798 -1.0672
  381DOPC  H14C52452   9.863   3.537   1.271 -3.5066  0.8757  2.2031
  381DOPC   C1552453   9.952   3.288   1.501  0.5653  0.1123 -0.5148
  381DOPC  H15A52454   9.851   3.256   1.518  0.7532  0.0420  0.5748
  381DOPC  H15B52455  10.002   3.284   1.597 -2.6839 -1.4587  1.2511
  381DOPC  H15C52456  10.002   3.218   1.436 -0.5933 -1.1884 -0.0537
  381DOPC   C1152457   9.980   3.530   1.680 -0.5814 -0.9532 -0.2694
  381DOPC  H11A52458   9.926   3.588   1.758  0.2630  0.7894 -0.9273
  381DOPC  H11B52459  10.004   3.430   1.722  0.9564  0.6779  3.1349
  381DOPC     P52460  10.147   3.736   1.640  0.5458 -0.5947 -0.0748
  381DOPC   O1352461  10.043   3.810   1.567  0.8183  0.5422  0.3852
  381DOPC   O1452462  10.284   3.744   1.591 -0.1991 -0.4106  0.5197
  381DOPC   O1252463  10.116   3.583   1.655  0.2001 -0.0778  0.5702
  381DOPC   O1152464  10.147   3.786   1.788 -0.7599 -0.3020 -0.3903
  381DOPC    C152465  10.238   3.737   1.879 -0.5346  0.2926  0.8394
  381DOPC    HA52466  10.340   3.775   1.854 -1.1579  1.3026 -0.2782
  381DOPC    HB52467  10.245   3.627   1.866  1.6539  0.4337  0.2644
  381DOPC    C252468  10.206   3.774   2.026 -0.2262  0.2995 -0.7180
  381DOPC    HS52469  10.266   3.711   2.096 -1.8766  0.6152  1.0856
  381DOPC   O2152470  10.064   3.768   2.060 -0.3362  0.1788 -0.3330
  381DOPC   C2152471  10.003   3.653   2.039 -1.1734  0.4493 -0.5700
  381DOPC   O2252472  10.056   3.541   2.025  0.4029 -0.2906  0.3178
  381DOPC   C2252473   9.853   3.671   2.042  0.8191 -0.0431  0.3719
  381DOPC   H2R52474   9.814   3.571   2.072  1.2228 -0.8264 -1.5879
  381DOPC   H2S52475   9.812   3.705   1.945 -1.7233  1.6453  1.9219
  381DOPC    C352476  10.271   3.910   2.069 -0.1661  0.0213 -0.1338
  381DOPC    HX52477  10.217   3.992   2.017  1.0731  1.1172  0.2553
  381DOPC    HY52478  10.377   3.918   2.037  0.5333  0.6234  2.1597
  381DOPC   O3152479  10.267   3.919   2.214 -0.7505  0.6027 -0.1380
  381DOPC   C3152480  10.178   4.007   2.265 -0.3521  0.2536 -0.7277
  381DOPC   O3252481  10.107   4.075   2.200  0.3083 -0.1377  0.0212
  381DOPC   C3252482  10.189   4.009   2.418  0.1732  0.1539  0.1126
  381DOPC   H2X52483  10.093   3.970   2.458  0.0933  0.9722  0.7320
  381DOPC   H2Y52484  10.268   3.939   2.452  1.0331  0.9932 -0.1182
  381DOPC   C2352485   9.792   3.768   2.152 -0.4887  0.4138  0.9664
  381DOPC   H3R52486   9.682   3.764   2.139 -0.2026 -0.6915 -1.5612
  381DOPC   H3S52487   9.825   3.870   2.122 -2.7683  0.8883 -0.0985
  381DOPC   C2452488   9.823   3.731   2.296  0.0480 -0.2866  0.9512
  381DOPC   H4R52489   9.786   3.817   2.355 -2.4038  0.2747 -1.2513
  381DOPC   H4S52490   9.931   3.724   2.322  0.1634 -3.3852  0.1142
  381DOPC   C2552491   9.749   3.607   2.342 -0.2310  0.0475 -0.1419
  381DOPC   H5R52492   9.784   3.531   2.269 -1.2717  0.9042 -1.5847
  381DOPC   H5S52493   9.644   3.603   2.306  0.5839 -0.2938 -2.7066
  381DOPC   C2652494   9.774   3.574   2.491 -0.1455  0.0426 -0.0619
  381DOPC   H6R52495   9.685   3.519   2.529  1.0653 -0.8631  1.5825
  381DOPC   H6S52496   9.773   3.669   2.549  0.6077 -0.6825  1.1920
  381DOPC   C2752497   9.908   3.510   2.521  0.0719  0.2508 -0.2222
  381DOPC   H7R52498   9.919   3.523   2.631  0.6673  0.5194 -0.3105
  381DOPC   H7S52499   9.983   3.577   2.475  0.8319  0.9219  1.8784
  381DOPC   C2852500   9.921   3.360   2.478 -0.2333 -0.3882  0.0576
  381DOPC   H8R52501  10.032   3.357   2.478 -0.2512 -2.2545 -0.2859
  381DOPC   H8S52502   9.879   3.355   2.375 -2.0153  0.7927  0.6761
  381DOPC   C2952503   9.847   3.258   2.561 -0.0936  1.3370 -0.4115
  381DOPC   H9R52504   9.746   3.231   2.527 -0.6649  1.0857  1.3645
  381DOPC  C21052505   9.907   3.189   2.661  0.0328 -0.0595  0.1005
  381DOPC  H10R52506   9.857   3.103   2.708  0.7863 -1.0643 -0.8691
  381DOPC  C21152507  10.041   3.213   2.714  0.2123  0.2902 -0.5642
  381DOPC  H11R52508  10.067   3.320   2.701 -0.9043  0.6802  0.2210
  381DOPC  H11S52509  10.120   3.162   2.655  1.5051 -0.5329  1.7509
  381DOPC  C21252510  10.057   3.181   2.860 -0.1634  0.2154 -0.2369
  381DOPC  H12R52511  10.160   3.213   2.884 -1.0750  1.4391  2.5251
  381DOPC  H12S52512  10.046   3.073   2.885  0.6538 -0.3279 -2.0557
  381DOPC  C21352513   9.966   3.268   2.950  0.1450  0.0036 -0.0489
  381DOPC  H13R52514   9.860   3.249   2.923  0.1972 -0.5828  0.1550
  381DOPC  H13S52515   9.988   3.375   2.929 -0.9647 -0.1531 -2.2404
  381DOPC  C21452516   9.979   3.253   3.101  0.1149  0.1340  0.1268
  381DOPC  H14R52517   9.919   3.330   3.154  0.3012 -1.5599  2.9631
  381DOPC  H14S52518  10.088   3.261   3.119  0.0543 -0.0861  0.6024
  381DOPC  C21552519   9.936   3.122   3.149  0.2214  0.2647 -0.4774
  381DOPC  H15R52520   9.982   3.040   3.091 -1.3405 -0.1344 -1.1950
  381DOPC  H15S52521   9.826   3.117   3.137  0.0563 -1.8860  1.2377
  381DOPC  C21652522   9.973   3.091   3.299  0.5845 -0.0682 -0.1981
  381DOPC  H16R52523  10.084   3.090   3.306  0.5291 -2.4698  1.4462
  381DOPC  H16S52524   9.943   2.987   3.324 -0.4240  0.3564  0.4078
  381DOPC  C21752525   9.909   3.181   3.406 -0.1370 -0.1894 -0.2435
  381DOPC  H17R52526   9.945   3.281   3.377 -2.0633  0.3992 -0.7977
  381DOPC  H17S52527   9.956   3.160   3.504  1.3897  0.7322 -0.7505
  381DOPC  C21852528   9.760   3.180   3.404 -0.0460  0.4167  0.7827
  381DOPC  H18R52529   9.713   3.178   3.303 -1.2376  1.3904  1.2971
  381DOPC  H18S52530   9.720   3.273   3.449  0.7562  1.7576 -1.1740
  381DOPC  H18T52531   9.723   3.095   3.465  0.4824  0.3552  1.0259
  381DOPC   C3352532  10.199   4.155   2.470  0.2270 -0.1149  0.4207
  381DOPC   H3X52533  10.122   4.223   2.429  0.9922 -0.2411 -1.3226
  381DOPC   H3Y52534  10.297   4.197   2.439  0.2098  0.9016  1.6696
  381DOPC   C3452535  10.208   4.156   2.623  0.4848 -0.1037 -0.1023
  381DOPC   H4X52536  10.232   4.260   2.652 -1.3925 -0.1062  1.7006
  381DOPC   H4Y52537  10.296   4.097   2.657 -0.4802 -1.2866  0.4321
  381DOPC   C3552538  10.084   4.108   2.700  0.3265 -0.1779  0.5361
  381DOPC   H5X52539  10.065   4.001   2.676 -1.3970  0.7640 -3.0253
  381DOPC   H5Y52540   9.997   4.165   2.661  0.6687  0.5566  0.8392
  381DOPC   C3652541  10.099   4.128   2.853 -0.0255 -0.2288  0.3363
  381DOPC   H6X52542  10.183   4.065   2.889  0.0238  0.9095  2.3278
  381DOPC   H6Y52543  10.137   4.228   2.882  1.0168 -0.3639 -0.4689
  381DOPC   C3752544   9.981   4.088   2.938 -0.6500 -0.3841  0.1141
  381DOPC   H7X52545   9.889   4.151   2.930 -0.6102 -0.3035  0.2894
  381DOPC   H7Y52546   9.949   3.992   2.892  1.5992 -0.5391 -1.2917
  381DOPC   C3852547  10.007   4.056   3.087 -0.0906  0.4221 -0.1212
  381DOPC   H8X52548  10.091   3.983   3.086 -1.1069 -0.7813 -1.0441
  381DOPC   H8Y52549   9.917   4.006   3.127 -0.5908  2.5109  1.5400
  381DOPC   C3952550  10.033   4.179   3.167  0.5514  0.6122 -0.3342
  381DOPC   H9X52551  10.041   4.272   3.109 -0.3291  1.0376  0.2123
  381DOPC  C31052552  10.016   4.190   3.298 -0.6374 -0.2765 -0.2572
  381DOPC  H10X52553  10.032   4.289   3.342  1.7988 -0.1133 -1.3845
  381DOPC  C31152554   9.987   4.079   3.391 -1.1235  0.1586 -0.7671
  381DOPC  H11X52555  10.056   3.992   3.384 -2.0638 -0.6025 -0.7838
  381DOPC  H11Y52556   9.888   4.033   3.372 -1.3928  0.6674 -0.6317
  381DOPC  C31252557   9.994   4.110   3.542 -0.9415  0.4384  0.9397
  381DOPC  H12X52558   9.935   4.203   3.561 -2.9774 -0.8203  1.0752
  381DOPC  H12Y52559  10.099   4.124   3.576  0.0111 -0.0062 -1.6227
  381DOPC  C31352560   9.933   3.999   3.628  0.0449 -0.0784 -0.1401
  381DOPC  H13X52561   9.898   4.030   3.728 -0.7815 -2.7096  0.4709
  381DOPC  H13Y52562   9.841   3.969   3.572  0.8621 -0.7562 -1.1760
  381DOPC  C31452563  10.022   3.879   3.646  0.1242  0.4669 -0.3074
  381DOPC  H14X52564  10.039   3.828   3.549 -1.3765  0.4255 -0.5664
  381DOPC  H14Y52565  10.123   3.900   3.688  1.0925  0.2701 -2.4241
  381DOPC  C31552566   9.956   3.767   3.731  0.3193  0.1172  0.4728
  381DOPC  H15X52567   9.862   3.735   3.682  1.3484  0.0268 -1.5482
  381DOPC  H15Y52568   9.924   3.808   3.830  1.2781 -0.2471  0.9422
  381DOPC  C31652569  10.038   3.644   3.756 -0.5308  0.6050  0.2423
  381DOPC  H16X52570  10.052   3.590   3.660 -0.0855 -0.2187  0.7674
  381DOPC  H16Y52571  10.136   3.675   3.796 -1.7126  2.1282  2.1825
  381DOPC  C31752572   9.966   3.548   3.854  0.1083 -0.1089  0.2257
  381DOPC  H17X52573   9.965   3.590   3.957 -1.9538 -3.0241  1.5650
  381DOPC  H17Y52574   9.857   3.549   3.832 -0.0503  0.3473  0.9796
  381DOPC  C31852575  10.009   3.405   3.850  0.4782  0.1338 -0.2978
  381DOPC  H18X52576   9.960   3.340   3.774  2.0659 -1.5484  0.0354
  381DOPC  H18Y52577  10.120   3.403   3.851  0.5155  1.5907  0.6725
  381DOPC  H18Z52578   9.973   3.359   3.944 -0.6942  2.2888  0.3789
  382DOPC     N52579   7.352   0.894   1.779 -0.5978 -0.0950  0.0012
  382DOPC   C1252580   7.380   0.924   1.921 -0.8282  0.6839 -0.2202
  382DOPC  H12A52581   7.292   0.963   1.971  0.3974  1.6863  1.2309
  382DOPC  H12B52582   7.455   1.002   1.922  0.4385 -0.4268  2.7238
  382DOPC   C1352583   7.473   0.853   1.702  0.5605  0.3109 -0.5829
  382DOPC  H13A52584   7.447   0.846   1.597  1.2018  1.6866 -0.8625
  382DOPC  H13B52585   7.551   0.928   1.695  2.8031 -1.7157  1.1708
  382DOPC  H13C52586   7.518   0.759   1.729  1.4577 -0.1405 -3.2596
  382DOPC   C1452587   7.298   1.022   1.722 -0.2344 -0.1848  0.8522
  382DOPC  H14A52588   7.208   1.049   1.775  0.5352  0.4590  1.8677
  382DOPC  H14B52589   7.367   1.105   1.728  0.0692 -0.4199  0.6703
  382DOPC  H14C52590   7.268   0.999   1.620  1.0048  0.5722  0.2906
  382DOPC   C1552591   7.230   0.800   1.762 -0.6218  0.3093 -0.1632
  382DOPC  H15A52592   7.207   0.778   1.659 -0.3065  0.8791 -0.3643
  382DOPC  H15B52593   7.145   0.843   1.813  0.7522  1.8087  0.9853
  382DOPC  H15C52594   7.241   0.701   1.804 -0.8977 -0.4132 -1.7033
  382DOPC   C1152595   7.429   0.807   2.019  0.3436  0.5835  0.5328
  382DOPC  H11A52596   7.526   0.768   1.983  0.4182  0.4939  0.8247
  382DOPC  H11B52597   7.454   0.841   2.122  0.7985 -1.4980  1.1565
  382DOPC     P52598   7.228   0.676   2.126  0.4237 -0.2421  0.2068
  382DOPC   O1352599   7.140   0.566   2.076 -0.1955  0.5655 -0.9907
  382DOPC   O1452600   7.166   0.810   2.150 -0.1530  0.3451 -0.1173
  382DOPC   O1252601   7.349   0.693   2.030 -0.2681  0.3927 -0.0525
  382DOPC   O1152602   7.296   0.622   2.250 -0.9093  1.0339 -0.0512
  382DOPC    C152603   7.282   0.673   2.381 -0.3866  1.0616  0.6346
  382DOPC    HA52604   7.331   0.608   2.457  1.3829  1.4603 -0.1313
  382DOPC    HB52605   7.175   0.696   2.401 -0.6957 -1.9975  3.4833
  382DOPC    C252606   7.370   0.804   2.398 -0.1055 -0.7775 -0.5413
  382DOPC    HS52607   7.349   0.871   2.311 -0.0635  0.1443  0.1458
  382DOPC   O2152608   7.503   0.765   2.399 -0.7046  0.8364 -0.0487
  382DOPC   C2152609   7.584   0.874   2.394  0.1036  0.7652 -0.1827
  382DOPC   O2252610   7.549   0.976   2.347 -0.1391  0.0177 -0.1778
  382DOPC   C2252611   7.725   0.839   2.435 -0.2472 -0.2296 -0.6904
  382DOPC   H2R52612   7.792   0.818   2.349 -0.6725 -0.2102 -1.0297
  382DOPC   H2S52613   7.722   0.756   2.509  0.5994  1.8293  1.8193
  382DOPC    C352614   7.322   0.882   2.528 -0.6011 -0.2309 -0.2096
  382DOPC    HX52615   7.226   0.931   2.503  0.7106  1.5858 -2.0346
  382DOPC    HY52616   7.387   0.971   2.545 -1.2621  0.4018 -0.9484
  382DOPC   O3152617   7.314   0.796   2.650  0.2031  0.4788 -0.6234
  382DOPC   C3152618   7.317   0.861   2.768  0.1903  0.1257 -0.4101
  382DOPC   O3252619   7.325   0.982   2.782  0.4451  0.2772 -0.3446
  382DOPC   C3252620   7.314   0.752   2.867  0.0200 -0.3454  0.4379
  382DOPC   H2X52621   7.239   0.680   2.828 -1.1543  0.7524  0.5657
  382DOPC   H2Y52622   7.406   0.691   2.863 -0.4288 -0.9631 -1.6813
  382DOPC   C2352623   7.794   0.952   2.520  0.3587 -0.1922 -0.9365
  382DOPC   H3R52624   7.808   1.044   2.459 -0.5304  0.1826 -0.5847
  382DOPC   H3S52625   7.896   0.915   2.543  0.9826  1.0478 -1.5953
  382DOPC   C2452626   7.718   0.992   2.648 -0.1889 -0.0176 -0.0611
  382DOPC   H4R52627   7.611   0.998   2.620 -0.8034  0.2352  2.1710
  382DOPC   H4S52628   7.760   1.091   2.677 -1.0485  0.7593 -1.3666
  382DOPC   C2552629   7.744   0.904   2.767  0.3455 -0.1215  1.1487
  382DOPC   H5R52630   7.851   0.878   2.784  1.1428  1.6346 -0.7908
  382DOPC   H5S52631   7.676   0.817   2.753 -1.4698  1.5158 -0.8178
  382DOPC   C2652632   7.673   0.968   2.888  0.1855 -0.9313 -0.0573
  382DOPC   H6R52633   7.566   0.983   2.861  0.0758 -1.8247 -0.1532
  382DOPC   H6S52634   7.732   1.060   2.907 -1.2761  0.4299 -1.7606
  382DOPC   C2752635   7.670   0.878   3.010  0.6512  0.2848  0.1846
  382DOPC   H7R52636   7.769   0.838   3.042  1.0644 -0.1076 -1.4818
  382DOPC   H7S52637   7.617   0.783   2.986 -0.7279  1.1301 -0.1950
  382DOPC   C2852638   7.623   0.948   3.134  0.7206  0.6988 -0.6215
  382DOPC   H8R52639   7.574   0.867   3.194 -2.0390  0.5919 -2.8017
  382DOPC   H8S52640   7.538   1.011   3.099  1.8051  2.7013  0.2182
  382DOPC   C2952641   7.722   1.027   3.213 -0.6244 -0.5379  0.0432
  382DOPC   H9R52642   7.805   1.063   3.151  0.1369 -1.5228  0.4592
  382DOPC  C21052643   7.726   1.056   3.345  0.2936 -0.2356 -0.1457
  382DOPC  H10R52644   7.810   1.121   3.375 -1.3274  1.7218  0.4310
  382DOPC  C21152645   7.632   1.005   3.447  0.0277  0.3382  0.6623
  382DOPC  H11R52646   7.570   0.925   3.401 -0.9897  2.0076 -1.0200
  382DOPC  H11S52647   7.572   1.092   3.483  1.0597  2.3730 -2.1953
  382DOPC  C21252648   7.713   0.954   3.568  0.1818 -0.2325  0.5978
  382DOPC  H12R52649   7.645   0.936   3.654  0.0146 -0.1916  0.4754
  382DOPC  H12S52650   7.775   1.041   3.598 -1.5233  0.3957  2.5518
  382DOPC  C21352651   7.801   0.824   3.547  0.0127  0.2373  0.4869
  382DOPC  H13R52652   7.849   0.842   3.449 -1.2224  0.9985 -0.0001
  382DOPC  H13S52653   7.749   0.731   3.518 -1.7964  1.7550 -1.3990
  382DOPC  C21452654   7.912   0.788   3.648  0.3094  0.0492 -0.3720
  382DOPC  H14R52655   7.964   0.886   3.662  0.8485 -0.1858 -0.7040
  382DOPC  H14S52656   7.971   0.709   3.598 -2.0682 -0.4003 -2.6931
  382DOPC  C21552657   7.856   0.731   3.777  0.2433 -0.1102  0.0602
  382DOPC  H15R52658   7.830   0.624   3.769 -1.3462  0.0434  2.3183
  382DOPC  H15S52659   7.765   0.788   3.804  2.2117  2.7981  1.0415
  382DOPC  C21652660   7.956   0.743   3.895 -0.7937  0.2952  0.2178
  382DOPC  H16R52661   7.986   0.850   3.892  0.1591  0.0423  0.3508
  382DOPC  H16S52662   8.047   0.681   3.878  0.0175  1.5889 -0.3545
  382DOPC  C21752663   7.886   0.705   4.025 -0.2947 -0.1809  0.5848
  382DOPC  H17R52664   7.880   0.595   4.020 -0.8075 -0.1048 -1.7740
  382DOPC  H17S52665   7.781   0.741   4.036 -0.2144  1.2046 -2.2802
  382DOPC  C21852666   7.975   0.755   4.138  0.0958  0.0434 -0.6445
  382DOPC  H18R52667   7.959   0.860   4.169  1.2760 -0.3363  1.4294
  382DOPC  H18S52668   8.082   0.745   4.112  0.4342  1.4208  0.1257
  382DOPC  H18T52669   7.952   0.694   4.229 -0.1948  1.2328  0.1012
  382DOPC   C3352670   7.277   0.801   3.011  0.2121 -0.6451  0.6287
  382DOPC   H3X52671   7.176   0.844   2.994  1.4112  1.5078 -1.7021
  382DOPC   H3Y52672   7.344   0.881   3.047  0.1632 -0.6284  0.6832
  382DOPC   C3452673   7.282   0.691   3.117  0.6746  0.8031  0.3961
  382DOPC   H4X52674   7.390   0.668   3.132  0.4209 -0.1082  0.8860
  382DOPC   H4Y52675   7.240   0.606   3.058  0.0294  0.0004  1.9608
  382DOPC   C3552676   7.213   0.709   3.249 -0.3801  0.3822 -0.0006
  382DOPC   H5X52677   7.226   0.620   3.314 -2.2688 -0.6605 -0.9585
  382DOPC   H5Y52678   7.103   0.718   3.231 -0.4612 -1.8830 -0.9664
  382DOPC   C3652679   7.265   0.836   3.324  0.0102  0.0712  0.9829
  382DOPC   H6X52680   7.374   0.833   3.344 -0.2207 -0.4987  2.2938
  382DOPC   H6Y52681   7.259   0.932   3.269  1.4321  0.2000  1.0259
  382DOPC   C3752682   7.205   0.846   3.464 -0.4542 -0.0389  0.4874
  382DOPC   H7X52683   7.097   0.870   3.468 -0.2344  1.2549 -0.5624
  382DOPC   H7Y52684   7.201   0.749   3.517 -1.0598  0.8360  2.1282
  382DOPC   C3852685   7.279   0.938   3.558  0.1328  0.2044  0.1657
  382DOPC   H8X52686   7.389   0.920   3.556  0.3110  1.2328  0.0432
  382DOPC   H8Y52687   7.252   0.910   3.662 -3.9770 -1.6292 -1.2024
  382DOPC   C3952688   7.247   1.082   3.535 -0.5561  0.0182 -0.1369
  382DOPC   H9X52689   7.271   1.117   3.434 -1.6316 -0.8899 -0.7249
  382DOPC  C31052690   7.173   1.165   3.615  0.4324  0.9444  1.1184
  382DOPC  H10X52691   7.148   1.264   3.573  0.2746 -0.0116 -1.1700
  382DOPC  C31152692   7.117   1.125   3.751  0.2178  0.2979  0.0367
  382DOPC  H11X52693   7.193   1.058   3.798 -0.4487 -0.7525 -0.3520
  382DOPC  H11Y52694   7.015   1.083   3.748 -0.9543  2.8355  1.2716
  382DOPC  C31252695   7.091   1.246   3.851  0.3980  0.2818  0.3433
  382DOPC  H12X52696   7.047   1.204   3.944  1.3937  1.2991  1.3125
  382DOPC  H12Y52697   7.012   1.311   3.808  0.1503 -0.2892 -0.0795
  382DOPC  C31352698   7.215   1.332   3.908  0.2241 -0.5182 -0.1670
  382DOPC  H13X52699   7.310   1.277   3.923 -0.7660 -2.7346 -1.5929
  382DOPC  H13Y52700   7.236   1.405   3.826 -1.5821  0.0634 -0.1528
  382DOPC  C31452701   7.170   1.414   4.032  0.3686  0.1395 -0.2294
  382DOPC  H14X52702   7.066   1.452   4.022  0.9805  2.2967  1.0219
  382DOPC  H14Y52703   7.167   1.356   4.127 -3.9862  0.6920  0.1763
  382DOPC  C31552704   7.259   1.539   4.059  0.0712 -0.5341 -0.8441
  382DOPC  H15X52705   7.220   1.580   4.154  1.2905  0.8722 -0.9143
  382DOPC  H15Y52706   7.232   1.619   3.986 -1.3244  0.3892  0.6056
  382DOPC  C31652707   7.407   1.519   4.068  0.0342 -0.5508  0.1052
  382DOPC  H16X52708   7.417   1.437   4.142 -0.5862 -0.2922  0.4859
  382DOPC  H16Y52709   7.446   1.486   3.969 -0.6565 -0.1187 -0.3240
  382DOPC  C31752710   7.473   1.648   4.102  0.4974  0.0808 -0.2555
  382DOPC  H17X52711   7.477   1.705   4.007  1.2291 -0.7413 -0.7323
  382DOPC  H17Y52712   7.418   1.697   4.186 -0.3531 -1.3934  0.0798
  382DOPC  C31852713   7.617   1.643   4.146  0.5449  0.6732  0.3486
  382DOPC  H18X52714   7.650   1.747   4.169 -0.4912  1.0375  0.2200
  382DOPC  H18Y52715   7.630   1.569   4.228  1.7973  1.9828  1.3795
  382DOPC  H18Z52716   7.680   1.607   4.062 -2.3136  1.7241 -2.4399
  383DOPC     N52717   8.426   3.336   1.809  0.2239 -0.7003  0.6199
  383DOPC   C1252718   8.295   3.285   1.747 -0.0842  0.0399 -0.9779
  383DOPC  H12A52719   8.293   3.178   1.762 -1.0531  0.2514  0.5125
  383DOPC  H12B52720   8.302   3.314   1.643  0.2813  0.4368 -0.8477
  383DOPC   C1352721   8.549   3.285   1.738  0.6178 -0.6591 -0.8436
  383DOPC  H13A52722   8.635   3.329   1.786  0.2728 -1.0443  0.1356
  383DOPC  H13B52723   8.554   3.178   1.750 -1.8887 -0.6863  0.6509
  383DOPC  H13C52724   8.552   3.310   1.633  1.2383 -1.1017 -0.9368
  383DOPC   C1452725   8.440   3.305   1.948 -0.3309 -0.4012  0.0116
  383DOPC  H14A52726   8.510   3.378   1.986 -1.5403  0.6343  0.3350
  383DOPC  H14B52727   8.349   3.321   2.005 -1.3051 -1.4006 -1.2002
  383DOPC  H14C52728   8.473   3.207   1.978 -0.5751 -0.3279  0.5412
  383DOPC   C1552729   8.436   3.491   1.791 -0.1583 -0.0752 -0.2289
  383DOPC  H15A52730   8.459   3.512   1.688 -0.4061 -2.3498 -0.8040
  383DOPC  H15B52731   8.507   3.539   1.857  0.7724 -0.1808 -1.1418
  383DOPC  H15C52732   8.342   3.528   1.830  1.0849  0.4696  2.5380
  383DOPC   C1152733   8.160   3.340   1.801  0.4773  0.0849 -0.3275
  383DOPC  H11A52734   8.146   3.448   1.779 -0.4368  0.6943  2.7518
  383DOPC  H11B52735   8.078   3.282   1.754  1.7084  0.3206 -2.9921
  383DOPC     P52736   8.040   3.273   2.021  0.2346  0.3718  0.0515
  383DOPC   O1352737   8.062   3.125   2.019  0.3463  0.0225  0.6165
  383DOPC   O1452738   7.908   3.320   1.970  0.0466  0.7152  0.0429
  383DOPC   O1252739   8.159   3.331   1.944  0.0530 -0.6185  0.1199
  383DOPC   O1152740   8.064   3.335   2.162  0.0902  0.1941 -0.1485
  383DOPC    C152741   8.188   3.341   2.233  0.3648 -1.0929  0.3138
  383DOPC    HA52742   8.253   3.417   2.185  2.5567 -1.7846  2.0236
  383DOPC    HB52743   8.239   3.243   2.225  0.3806 -0.9323 -2.7039
  383DOPC    C252744   8.162   3.385   2.378 -0.3487 -0.4164 -0.3121
  383DOPC    HS52745   8.082   3.461   2.365  1.2351  1.3605 -0.0963
  383DOPC   O2152746   8.282   3.436   2.439  0.3752 -0.3068  0.4470
  383DOPC   C2152747   8.283   3.563   2.474  0.1295 -1.2601  0.4751
  383DOPC   O2252748   8.198   3.652   2.454  0.4901  0.4131 -0.0616
  383DOPC   C2252749   8.412   3.597   2.548  0.5232  0.0066  0.2684
  383DOPC   H2R52750   8.460   3.688   2.506  2.0075 -0.6323  0.4868
  383DOPC   H2S52751   8.484   3.512   2.540 -0.4730 -0.7666 -0.6863
  383DOPC    C352752   8.102   3.273   2.469 -0.0252  0.5027  0.6793
  383DOPC    HX52753   8.178   3.193   2.458 -1.2319 -0.4902 -1.0707
  383DOPC    HY52754   8.012   3.226   2.422 -0.6185 -0.1977  2.4399
  383DOPC   O3152755   8.087   3.310   2.613  0.6158  0.0924  0.3524
  383DOPC   C3152756   7.980   3.378   2.627  0.5200 -0.7161 -0.0521
  383DOPC   O3252757   7.890   3.397   2.547 -0.1978 -0.3905  0.1729
  383DOPC   C3252758   7.976   3.439   2.764 -0.2196 -0.0647 -0.0979
  383DOPC   H2X52759   8.061   3.508   2.780  1.1995 -1.7828  0.0306
  383DOPC   H2Y52760   7.878   3.491   2.776 -0.9257 -1.2059 -0.6121
  383DOPC   C2352761   8.400   3.628   2.701 -0.0695 -0.1688  0.3106
  383DOPC   H3R52762   8.318   3.700   2.723 -1.3957 -1.1692 -1.1500
  383DOPC   H3S52763   8.497   3.668   2.735 -1.1340  1.3354  1.7567
  383DOPC   C2452764   8.382   3.504   2.785  0.7581  0.0901  0.2250
  383DOPC   H4R52765   8.461   3.430   2.758  1.2428  0.6851 -0.0043
  383DOPC   H4S52766   8.283   3.458   2.768  0.7696 -0.6484  1.9214
  383DOPC   C2552767   8.390   3.540   2.939 -0.2028  0.0855  0.3220
  383DOPC   H5R52768   8.355   3.456   3.003 -0.6027 -1.1093 -1.3945
  383DOPC   H5S52769   8.322   3.627   2.946  0.1953  0.2857  2.3380
  383DOPC   C2652770   8.522   3.583   2.995 -0.2149 -0.4479 -1.0032
  383DOPC   H6R52771   8.555   3.675   2.942  2.9593 -0.0256  1.4083
  383DOPC   H6S52772   8.593   3.501   2.974 -1.9705 -2.8246  1.6136
  383DOPC   C2752773   8.505   3.617   3.143  1.1069 -0.2619  0.0929
  383DOPC   H7R52774   8.452   3.528   3.183 -0.4495 -0.3559 -2.0044
  383DOPC   H7S52775   8.440   3.707   3.149  0.3310 -0.8415  0.8004
  383DOPC   C2852776   8.630   3.639   3.221 -0.6094 -1.1046  0.4392
  383DOPC   H8R52777   8.686   3.715   3.163 -1.3201  0.3972  1.6184
  383DOPC   H8S52778   8.694   3.549   3.222  1.1649 -0.0022  4.1118
  383DOPC   C2952779   8.613   3.690   3.364 -0.1596  0.2701 -0.1243
  383DOPC   H9R52780   8.627   3.799   3.361 -1.6685  0.4571 -1.5942
  383DOPC  C21052781   8.620   3.621   3.480  0.3886  0.6619  0.7783
  383DOPC  H10R52782   8.635   3.670   3.577  2.4351  1.0171  0.3209
  383DOPC  C21152783   8.640   3.473   3.475 -0.5914 -0.4354  0.8154
  383DOPC  H11R52784   8.750   3.458   3.464 -0.6044  1.3478 -3.0465
  383DOPC  H11S52785   8.595   3.417   3.391  0.6221 -0.8364  0.4006
  383DOPC  C21252786   8.600   3.414   3.610  0.1368 -0.0972  0.1291
  383DOPC  H12R52787   8.597   3.304   3.598 -1.7894 -0.1351  0.6441
  383DOPC  H12S52788   8.501   3.454   3.639  0.2399 -0.3214  0.8103
  383DOPC  C21352789   8.698   3.447   3.717  0.7038  0.0768  0.3945
  383DOPC  H13R52790   8.677   3.551   3.748 -2.4084 -0.1928 -0.4622
  383DOPC  H13S52791   8.801   3.435   3.678  0.2903 -1.5822 -0.3085
  383DOPC  C21452792   8.686   3.354   3.839  0.1562 -0.2360  0.9207
  383DOPC  H14R52793   8.697   3.250   3.803  1.1628  0.8529 -2.1701
  383DOPC  H14S52794   8.580   3.356   3.873  0.6989  1.2543  2.7005
  383DOPC  C21552795   8.774   3.390   3.960 -0.0825 -0.2223  0.1733
  383DOPC  H15R52796   8.752   3.490   4.001  0.7719 -0.1411  0.4630
  383DOPC  H15S52797   8.876   3.393   3.916  0.4687 -0.8325  1.3581
  383DOPC  C21652798   8.758   3.288   4.073 -0.5328 -0.0468 -0.2314
  383DOPC  H16R52799   8.853   3.302   4.130  0.8762 -1.8864 -2.0006
  383DOPC  H16S52800   8.768   3.185   4.035  1.4513 -0.7681  1.9751
  383DOPC  C21752801   8.645   3.308   4.166  0.3332 -0.6423 -0.4728
  383DOPC  H17R52802   8.549   3.334   4.117 -0.4957 -0.5605  1.1332
  383DOPC  H17S52803   8.664   3.402   4.222 -0.0282  0.6614 -2.4112
  383DOPC  C21852804   8.623   3.194   4.266  0.4161  0.1961  0.1108
  383DOPC  H18R52805   8.538   3.208   4.335  0.5302 -1.7616  0.7041
  383DOPC  H18S52806   8.715   3.176   4.326  2.8584 -0.4338 -3.4435
  383DOPC  H18T52807   8.598   3.101   4.210 -2.9882  0.6855  0.6224
  383DOPC   C3352808   7.994   3.326   2.868  0.0551  0.1395 -0.2855
  383DOPC   H3X52809   8.095   3.282   2.857  0.6609  1.0969  1.0934
  383DOPC   H3Y52810   7.920   3.243   2.863  0.5934 -0.3355 -0.4953
  383DOPC   C3452811   7.997   3.377   3.015  0.1876 -0.4885  0.0204
  383DOPC   H4X52812   7.900   3.429   3.032  0.0792 -0.7790  0.2794
  383DOPC   H4Y52813   8.071   3.460   3.018  0.8202 -1.0787  1.8699
  383DOPC   C3552814   8.014   3.264   3.123  0.4198  0.2230  0.1016
  383DOPC   H5X52815   8.109   3.207   3.117  0.0592 -0.4486  0.5700
  383DOPC   H5Y52816   7.927   3.196   3.108 -2.3762  3.8442 -1.9025
  383DOPC   C3652817   7.994   3.327   3.260  0.1250 -0.9787 -0.8453
  383DOPC   H6X52818   7.888   3.362   3.259 -0.3188 -2.0761 -3.7379
  383DOPC   H6Y52819   7.988   3.238   3.327 -1.8017 -0.6439 -0.4920
  383DOPC   C3752820   8.099   3.428   3.309  0.5596 -0.2370  0.4955
  383DOPC   H7X52821   8.187   3.371   3.346  1.5739  1.3689  0.6739
  383DOPC   H7Y52822   8.127   3.508   3.236 -2.0435  1.1944  0.9523
  383DOPC   C3852823   8.054   3.507   3.434  0.1105 -0.3899  0.1104
  383DOPC   H8X52824   7.968   3.571   3.404  0.4177  0.4891  1.0409
  383DOPC   H8Y52825   8.130   3.582   3.465 -0.6201  1.0517 -1.3968
  383DOPC   C3952826   8.017   3.415   3.543 -0.3231 -0.1985 -0.0280
  383DOPC   H9X52827   8.059   3.315   3.525  0.7670  0.5183 -1.7063
  383DOPC  C31052828   7.937   3.435   3.649 -0.1392 -0.0862  0.2590
  383DOPC  H10X52829   7.929   3.355   3.725  1.7341  0.1240  0.7208
  383DOPC  C31152830   7.854   3.560   3.677 -0.7150  0.1434 -0.2015
  383DOPC  H11X52831   7.747   3.530   3.674 -0.9195  0.9136 -1.4361
  383DOPC  H11Y52832   7.863   3.637   3.597 -1.6875  0.5027  0.0164
  383DOPC  C31252833   7.883   3.643   3.801  0.3509 -0.6932 -0.1154
  383DOPC  H12X52834   7.991   3.668   3.809  0.4607 -0.3365 -2.1927
  383DOPC  H12Y52835   7.864   3.584   3.893  0.7430 -2.6320 -1.2212
  383DOPC  C31352836   7.804   3.781   3.804 -0.4025  0.4797 -0.0286
  383DOPC  H13X52837   7.696   3.769   3.779 -0.0415 -1.3383 -0.9558
  383DOPC  H13Y52838   7.825   3.815   3.907  2.0349  1.4201 -0.7498
  383DOPC  C31452839   7.887   3.884   3.725 -0.4523 -0.0175  0.3607
  383DOPC  H14X52840   7.989   3.895   3.767 -0.7040 -1.1629  1.3285
  383DOPC  H14Y52841   7.893   3.846   3.621 -0.7175  0.8462  0.0223
  383DOPC  C31552842   7.813   4.021   3.713 -0.3682 -0.2562 -0.1404
  383DOPC  H15X52843   7.898   4.089   3.688 -0.1785  0.0953  1.3499
  383DOPC  H15Y52844   7.781   4.058   3.813  2.0486 -1.0720  1.0210
  383DOPC  C31652845   7.710   4.027   3.606 -0.3737 -0.0862 -0.3392
  383DOPC  H16X52846   7.616   3.985   3.648 -0.6995  1.0740  0.1226
  383DOPC  H16Y52847   7.678   4.132   3.591  0.1300  0.0281 -0.6333
  383DOPC  C31752848   7.732   3.947   3.472  0.2481  0.0682  0.3043
  383DOPC  H17X52849   7.828   3.975   3.424  0.3487 -1.1467 -0.2422
  383DOPC  H17Y52850   7.753   3.838   3.484  1.0114 -0.1382 -2.2473
  383DOPC  C31852851   7.612   3.957   3.379  0.1074 -0.3868  0.3342
  383DOPC  H18X52852   7.609   3.881   3.298  0.6704  0.2288 -0.2792
  383DOPC  H18Y52853   7.523   3.949   3.445 -2.1910  0.5976 -2.4421
  383DOPC  H18Z52854   7.606   4.055   3.327  0.5544 -1.7552 -2.4698
  384DOPC     N52855   3.583  10.877   2.066  0.0039 -0.8019  0.1976
  384DOPC   C1252856   3.465  10.818   2.136 -0.1350  0.3382 -0.0990
  384DOPC  H12A52857   3.425  10.890   2.206  0.4690 -0.3763  1.0114
  384DOPC  H12B52858   3.508  10.744   2.202  1.8800  1.0101 -0.5695
  384DOPC   C1352859   3.656  10.983   2.146 -0.1212 -0.0142 -0.3333
  384DOPC  H13A52860   3.751  11.008   2.102 -0.3168 -1.2621 -1.5635
  384DOPC  H13B52861   3.591  11.069   2.141 -0.7133 -0.2806  1.8497
  384DOPC  H13C52862   3.667  10.963   2.251  1.4110  0.1516 -0.4386
  384DOPC   C1452863   3.553  10.943   1.931 -0.2747 -0.0983  0.1007
  384DOPC  H14A52864   3.636  10.998   1.890 -1.5589  1.3934 -0.6086
  384DOPC  H14B52865   3.525  10.860   1.868 -0.7690 -0.4062  0.7100
  384DOPC  H14C52866   3.467  11.009   1.933  0.6494  1.1492  0.2021
  384DOPC   C1552867   3.677  10.762   2.034 -1.3884  0.8300 -0.8150
  384DOPC  H15A52868   3.736  10.734   2.120  0.6543  1.6496 -1.8867
  384DOPC  H15B52869   3.755  10.789   1.964  0.0581 -3.2938 -1.0812
  384DOPC  H15C52870   3.625  10.676   1.994 -0.8254  0.6831 -1.2329
  384DOPC   C1152871   3.351  10.758   2.044  0.3267 -0.3963 -0.6496
  384DOPC  H11A52872   3.271  10.722   2.113 -2.1855  1.9167 -2.1706
  384DOPC  H11B52873   3.307  10.848   1.998 -0.6332 -0.3782  0.2441
  384DOPC     P52874   3.425  10.514   1.990  0.1356 -0.1793  0.4927
  384DOPC   O1352875   3.569  10.486   1.976  0.8589  0.5189  0.1881
  384DOPC   O1452876   3.337  10.434   1.902  0.6405  0.3176 -0.6223
  384DOPC   O1252877   3.392  10.663   1.949  0.2359 -0.0054  0.5156
  384DOPC   O1152878   3.384  10.490   2.141  0.3041  0.0463  0.1739
  384DOPC    C152879   3.273  10.403   2.165 -0.2993 -0.0271  0.0681
  384DOPC    HA52880   3.283  10.306   2.112  1.7239  0.2551 -0.1440
  384DOPC    HB52881   3.183  10.462   2.136 -1.4505 -2.2560 -1.1867
  384DOPC    C252882   3.265  10.387   2.325 -0.2699  0.6810  0.9829
  384DOPC    HS52883   3.175  10.328   2.350 -0.5444  0.0413 -1.2657
  384DOPC   O2152884   3.260  10.508   2.400 -0.5210 -0.2584  0.1077
  384DOPC   C2152885   3.157  10.587   2.365 -0.7279  0.5460 -0.3887
  384DOPC   O2252886   3.057  10.554   2.309 -0.4458 -0.0944  0.5696
  384DOPC   C2252887   3.188  10.729   2.405 -0.2212 -0.4073 -0.4907
  384DOPC   H2R52888   3.102  10.780   2.356  1.8971  0.9791 -3.0183
  384DOPC   H2S52889   3.284  10.750   2.353 -1.0533 -0.7955 -2.2667
  384DOPC    C352890   3.388  10.310   2.389  0.1647  0.1828  0.0395
  384DOPC    HX52891   3.487  10.342   2.350 -0.3471  0.3945 -1.1112
  384DOPC    HY52892   3.381  10.203   2.360  1.2031 -0.9164  3.3407
  384DOPC   O3152893   3.377  10.302   2.529 -0.2726 -0.2502  0.1053
  384DOPC   C3152894   3.478  10.351   2.601  0.0348 -0.0811 -0.4682
  384DOPC   O3252895   3.569  10.413   2.553  0.2233 -0.3797  0.2551
  384DOPC   C3252896   3.436  10.348   2.749 -0.2420 -0.0619 -0.2243
  384DOPC   H2X52897   3.414  10.452   2.779  0.7888 -0.1803  1.0260
  384DOPC   H2Y52898   3.342  10.290   2.763 -1.4118  2.2794  2.7410
  384DOPC   C2352899   3.179  10.767   2.556  0.0740 -0.1002  0.2065
  384DOPC   H3R52900   3.083  10.733   2.600 -0.1866  0.8442  0.3894
  384DOPC   H3S52901   3.174  10.877   2.561  0.1742 -0.1579  2.8451
  384DOPC   C2452902   3.295  10.725   2.656 -0.0123 -0.8006  0.7895
  384DOPC   H4R52903   3.307  10.615   2.662  3.7559 -0.6481 -1.2079
  384DOPC   H4S52904   3.248  10.763   2.750 -1.2916  0.2215 -0.2091
  384DOPC   C2552905   3.423  10.794   2.630  0.2640 -0.4885 -1.0238
  384DOPC   H5R52906   3.413  10.904   2.642  3.4426 -0.3553  2.1981
  384DOPC   H5S52907   3.458  10.785   2.525  2.2138  1.2459 -0.6071
  384DOPC   C2652908   3.538  10.738   2.724 -0.4486  0.1940 -0.6983
  384DOPC   H6R52909   3.640  10.774   2.696  0.7221 -2.2579  0.1040
  384DOPC   H6S52910   3.548  10.628   2.706 -2.0540 -0.1136  0.1378
  384DOPC   C2752911   3.519  10.753   2.879  0.3044 -0.5038  0.7160
  384DOPC   H7R52912   3.433  10.694   2.919  0.5943 -2.0485 -0.7958
  384DOPC   H7S52913   3.482  10.854   2.904  0.6731 -0.4918  1.2169
  384DOPC   C2852914   3.643  10.711   2.968  0.3412 -0.1980  0.2587
  384DOPC   H8R52915   3.716  10.792   2.946  1.0249 -1.2524 -1.5471
  384DOPC   H8S52916   3.686  10.622   2.918 -1.2902  0.1178 -1.8701
  384DOPC   C2952917   3.610  10.692   3.110 -0.1269  0.2327 -0.3486
  384DOPC   H9R52918   3.535  10.611   3.119 -0.6346  0.6025 -1.1351
  384DOPC  C21052919   3.653  10.755   3.225  0.9748 -0.0886 -0.2491
  384DOPC  H10R52920   3.618  10.715   3.321 -0.4003  1.8946  0.1431
  384DOPC  C21152921   3.753  10.865   3.217  0.4901  0.4909 -0.3098
  384DOPC  H11R52922   3.749  10.915   3.117 -1.0368  0.9040 -0.0774
  384DOPC  H11S52923   3.852  10.815   3.224 -0.4405 -1.5489 -0.8856
  384DOPC  C21252924   3.738  10.965   3.337 -0.0129  0.9879  0.0862
  384DOPC  H12R52925   3.648  11.027   3.316 -0.7076  0.2462  0.7881
  384DOPC  H12S52926   3.821  11.039   3.329 -0.0997  0.9106 -2.1753
  384DOPC  C21352927   3.728  10.914   3.473  0.2675  0.0212 -0.1599
  384DOPC  H13R52928   3.814  10.847   3.492 -0.5105 -0.3958  2.2626
  384DOPC  H13S52929   3.638  10.851   3.492 -0.0816 -0.0715 -1.9670
  384DOPC  C21452930   3.707  11.025   3.575  0.1610  0.7406 -0.1761
  384DOPC  H14R52931   3.611  11.073   3.546 -1.8215 -2.8038 -0.1420
  384DOPC  H14S52932   3.787  11.102   3.576 -0.7957  1.7626 -0.7171
  384DOPC  C21552933   3.682  10.970   3.714  0.5933  0.7614 -0.4328
  384DOPC  H15R52934   3.593  10.903   3.712  0.1740  1.2943 -0.1129
  384DOPC  H15S52935   3.655  11.053   3.783  0.1900 -0.4009  0.8659
  384DOPC  C21652936   3.796  10.890   3.786  0.0143 -0.0203 -0.2933
  384DOPC  H16R52937   3.841  10.810   3.725 -0.9376 -1.3172  0.6556
  384DOPC  H16S52938   3.745  10.840   3.871  0.3439  1.4112  0.8056
  384DOPC  C21752939   3.899  10.984   3.853 -0.3544  0.0539 -0.3372
  384DOPC  H17R52940   3.859  11.058   3.926  1.3922 -0.5436  1.2890
  384DOPC  H17S52941   3.936  11.045   3.768  0.9172  0.5807  0.5728
  384DOPC  C21852942   4.011  10.905   3.919 -0.6529  0.2303  0.2773
  384DOPC  H18R52943   3.976  10.834   3.997  0.7492 -2.9742 -1.7844
  384DOPC  H18S52944   4.087  10.977   3.955  0.1300  0.0278 -0.9156
  384DOPC  H18T52945   4.054  10.835   3.844 -1.6441  0.1797 -0.2646
  384DOPC   C3352946   3.550  10.280   2.833  0.1827 -0.2455 -0.0091
  384DOPC   H3X52947   3.644  10.328   2.799  0.5582 -0.6714  0.4050
  384DOPC   H3Y52948   3.554  10.171   2.814 -2.8309  0.0804 -3.4254
  384DOPC   C3452949   3.532  10.311   2.980 -0.9355  0.7701 -0.0201
  384DOPC   H4X52950   3.447  10.253   3.021  0.3637 -0.8318  0.5254
  384DOPC   H4Y52951   3.514  10.421   2.986  0.0840  0.8555  2.5131
  384DOPC   C3552952   3.653  10.284   3.066  0.1113  0.1565  0.2677
  384DOPC   H5X52953   3.742  10.332   3.022 -2.1900  3.7790 -0.8407
  384DOPC   H5Y52954   3.676  10.175   3.078 -0.5884  0.0113  0.3447
  384DOPC   C3652955   3.642  10.331   3.206 -0.3007  0.5267 -0.5087
  384DOPC   H6X52956   3.635  10.442   3.203 -1.0049  0.4621 -2.7684
  384DOPC   H6Y52957   3.549  10.304   3.259 -0.8377  1.6876 -0.8160
  384DOPC   C3752958   3.768  10.307   3.291  0.2004  0.3047  0.3017
  384DOPC   H7X52959   3.781  10.197   3.298 -0.8527  0.0828 -0.8706
  384DOPC   H7Y52960   3.855  10.355   3.241  1.8455 -1.4967  1.3104
  384DOPC   C3852961   3.762  10.362   3.431 -0.8086 -0.1569 -0.2211
  384DOPC   H8X52962   3.670  10.324   3.480 -1.8543  0.2982 -1.7669
  384DOPC   H8Y52963   3.770  10.473   3.425  2.2204 -0.2658  0.0670
  384DOPC   C3952964   3.877  10.309   3.513  0.2381  0.3011 -0.2282
  384DOPC   H9X52965   3.887  10.200   3.508  0.5943  0.3076  0.2000
  384DOPC  C31052966   3.959  10.375   3.594  0.2401 -0.2957 -0.5204
  384DOPC  H10X52967   4.018  10.310   3.661 -1.3513 -0.5463  0.7220
  384DOPC  C31152968   3.941  10.522   3.627  0.6403  0.7529 -0.0838
  384DOPC  H11X52969   3.865  10.544   3.705  1.0852 -0.3205  0.6740
  384DOPC  H11Y52970   3.918  10.573   3.531  1.5900  1.7396  0.2030
  384DOPC  C31252971   4.072  10.568   3.681  0.1418  0.1016 -0.0293
  384DOPC  H12X52972   4.060  10.678   3.674 -0.8647 -0.0300 -0.5020
  384DOPC  H12Y52973   4.160  10.531   3.624 -0.1821  1.7214 -1.6638
  384DOPC  C31352974   4.082  10.547   3.836 -0.3239 -1.1067 -0.1579
  384DOPC  H13X52975   4.002  10.601   3.890  0.9341  0.7868 -0.0685
  384DOPC  H13Y52976   4.085  10.445   3.880  1.4009 -1.5490 -1.2067
  384DOPC  C31452977   4.214  10.605   3.877 -0.1268 -0.4463 -0.3317
  384DOPC  H14X52978   4.294  10.533   3.848 -0.9189 -1.7806  0.6740
  384DOPC  H14Y52979   4.238  10.702   3.828 -0.7916 -0.4771 -0.7292
  384DOPC  C31552980   4.220  10.614   4.025 -0.2349 -0.9756 -0.1178
  384DOPC  H15X52981   4.204  10.515   4.072 -0.9089 -1.1656 -0.7191
  384DOPC  H15Y52982   4.147  10.688   4.067 -0.1135  1.0140 -3.0992
  384DOPC  C31652983   4.360  10.668   4.067  0.2581  0.7962 -0.9251
  384DOPC  H16X52984   4.446  10.601   4.045  1.0752  1.4276  0.2610
  384DOPC  H16Y52985   4.376  10.758   4.004  1.6943 -0.1711 -1.9963
  384DOPC  C31752986   4.367  10.708   4.214 -0.7311  0.4748 -0.7981
  384DOPC  H17X52987   4.309  10.801   4.233  0.1167  0.7093  0.8443
  384DOPC  H17Y52988   4.323  10.626   4.274  0.4307 -2.2706 -3.4729
  384DOPC  C31852989   4.514  10.729   4.263  0.0994 -0.7185 -0.5832
  384DOPC  H18X52990   4.567  10.820   4.226  0.6893 -0.8003  0.0415
  384DOPC  H18Y52991   4.518  10.750   4.372 -0.4760 -0.0541 -0.6788
  384DOPC  H18Z52992   4.578  10.639   4.268  0.7865 -0.1978  0.1344
  385DOPC     N52993  11.212   1.365   1.769  0.7225 -0.2758  0.3657
  385DOPC   C1252994  11.339   1.356   1.851 -0.0423 -0.5656  0.3077
  385DOPC  H12A52995  11.380   1.455   1.865 -0.7313 -0.2346  0.0553
  385DOPC  H12B52996  11.414   1.292   1.807  0.7317  0.8920 -0.6186
  385DOPC   C1352997  11.111   1.445   1.854  0.0614  0.3841 -0.1685
  385DOPC  H13A52998  11.015   1.470   1.812 -1.6594 -2.4992  1.7499
  385DOPC  H13B52999  11.091   1.383   1.940  4.0143  2.3876  2.5234
  385DOPC  H13C53000  11.153   1.541   1.878  0.9328 -0.5064  2.1521
  385DOPC   C1453001  11.159   1.231   1.730  0.8110 -0.1633 -0.4464
  385DOPC  H14A53002  11.218   1.187   1.651  0.2570  0.7110 -1.3817
  385DOPC  H14B53003  11.159   1.162   1.813  2.5598 -1.7146 -1.6719
  385DOPC  H14C53004  11.059   1.247   1.693  0.5964  1.8320  0.8130
  385DOPC   C1553005  11.238   1.436   1.641  0.1328  0.4387 -0.0013
  385DOPC  H15A53006  11.144   1.458   1.593 -0.6023 -1.2596  0.6056
  385DOPC  H15B53007  11.306   1.391   1.570  0.0264  0.2488  0.0164
  385DOPC  H15C53008  11.288   1.527   1.673 -0.1701 -0.3427  3.0719
  385DOPC   C1153009  11.331   1.287   1.993 -0.6493  0.4999 -0.1537
  385DOPC  H11A53010  11.431   1.314   2.032 -0.5502  0.3862 -0.3274
  385DOPC  H11B53011  11.258   1.340   2.058  1.9123  1.0559  2.4441
  385DOPC     P53012  11.212   1.058   2.039  0.5365  0.2285  0.1835
  385DOPC   O1353013  11.241   0.917   1.994  0.7236  0.4359 -0.1883
  385DOPC   O1453014  11.078   1.117   2.003 -0.0615  0.4214 -0.1349
  385DOPC   O1253015  11.326   1.143   1.977  0.0145  0.0548  0.1013
  385DOPC   O1153016  11.223   1.065   2.195 -0.4515  0.5580  0.2400
  385DOPC    C153017  11.106   1.119   2.261  0.2186  0.2404 -0.1470
  385DOPC    HA53018  11.017   1.056   2.243 -0.3182  1.0201 -0.2556
  385DOPC    HB53019  11.077   1.221   2.227 -0.4669  0.1055  0.0236
  385DOPC    C253020  11.128   1.106   2.408 -0.1702  0.2701 -0.5452
  385DOPC    HS53021  11.044   1.158   2.459  1.1841  1.3463  0.7117
  385DOPC   O2153022  11.252   1.160   2.447 -0.0389 -0.2617 -0.1900
  385DOPC   C2153023  11.281   1.284   2.423 -0.2820 -0.3498 -0.6816
  385DOPC   O2253024  11.209   1.368   2.371 -0.1594  1.0014  0.1417
  385DOPC   C2253025  11.407   1.325   2.497 -0.6146 -0.3927  0.3422
  385DOPC   H2R53026  11.465   1.399   2.438  0.4653 -0.3737  1.3708
  385DOPC   H2S53027  11.464   1.230   2.511 -2.0582 -1.3738 -0.1461
  385DOPC    C353028  11.120   0.958   2.459  0.2497 -0.0621  0.4129
  385DOPC    HX53029  11.194   0.906   2.395 -0.8872  1.2914 -2.1986
  385DOPC    HY53030  11.018   0.922   2.431 -0.9370  4.8715 -3.0355
  385DOPC   O3153031  11.131   0.953   2.606 -0.0761  0.3443 -0.2532
  385DOPC   C3153032  11.257   0.916   2.649 -0.3250  0.0611  0.0784
  385DOPC   O3253033  11.351   0.887   2.585 -0.3672  0.0268 -0.4742
  385DOPC   C3253034  11.256   0.903   2.807 -0.2398 -0.0642  0.5733
  385DOPC   H2X53035  11.153   0.922   2.844  0.3711  1.3096  1.6804
  385DOPC   H2Y53036  11.296   0.801   2.824  0.3817  0.0925  0.0749
  385DOPC   C2353037  11.378   1.396   2.636 -0.0286 -0.0802  0.4480
  385DOPC   H3R53038  11.319   1.318   2.689 -1.2695  0.4067 -0.1536
  385DOPC   H3S53039  11.325   1.493   2.620  0.3578  0.2547  1.1915
  385DOPC   C2453040  11.504   1.412   2.720  0.2739 -0.1180 -0.3369
  385DOPC   H4R53041  11.561   1.494   2.673  0.9504 -0.4684 -0.1435
  385DOPC   H4S53042  11.568   1.321   2.712  0.0703 -0.2283 -0.7548
  385DOPC   C2553043  11.462   1.450   2.868  0.1818  0.6529  0.5779
  385DOPC   H5R53044  11.394   1.372   2.907  1.3032 -0.8343 -0.3738
  385DOPC   H5S53045  11.393   1.538   2.862 -1.0794 -0.3664 -0.4458
  385DOPC   C2653046  11.574   1.456   2.966  0.2885 -0.1647  0.2126
  385DOPC   H6R53047  11.635   1.545   2.939 -0.6547  0.4011 -0.1224
  385DOPC   H6S53048  11.641   1.368   2.954 -0.0363 -0.8625  2.8490
  385DOPC   C2753049  11.541   1.469   3.114 -0.2800  0.5227  0.9199
  385DOPC   H7R53050  11.496   1.370   3.137 -2.9397  1.8063  1.6215
  385DOPC   H7S53051  11.462   1.547   3.110 -1.0148 -0.2585 -1.4667
  385DOPC   C2853052  11.661   1.487   3.218 -0.0813  0.2678  0.1913
  385DOPC   H8R53053  11.737   1.550   3.167 -0.6361 -1.2938 -2.8170
  385DOPC   H8S53054  11.705   1.386   3.225  1.7365  0.9538 -0.7415
  385DOPC   C2953055  11.588   1.533   3.335  0.4983  0.2978 -0.0972
  385DOPC   H9R53056  11.495   1.586   3.309 -0.1648 -0.5017  0.5513
  385DOPC  C21053057  11.631   1.516   3.465 -0.0120  0.6178 -0.2413
  385DOPC  H10R53058  11.590   1.568   3.553  0.5694 -1.2868  1.2169
  385DOPC  C21153059  11.753   1.442   3.510  0.1911  0.6918 -0.0458
  385DOPC  H11R53060  11.772   1.353   3.446 -1.3797 -0.1771  0.6432
  385DOPC  H11S53061  11.727   1.402   3.610  1.5902  1.7101  0.7662
  385DOPC  C21253062  11.882   1.529   3.514 -0.5728  0.6437 -0.0153
  385DOPC  H12R53063  11.883   1.578   3.414  0.1635 -0.7652 -0.7464
  385DOPC  H12S53064  11.976   1.470   3.517  0.1056  1.6984 -0.1660
  385DOPC  C21353065  11.882   1.625   3.634  0.1748  0.4815 -0.2837
  385DOPC  H13R53066  11.887   1.564   3.727 -3.0756  1.6336  0.7858
  385DOPC  H13S53067  11.781   1.671   3.636  0.8238  1.9387  0.8676
  385DOPC  C21453068  11.985   1.734   3.630  0.6703 -0.3142  0.5142
  385DOPC  H14R53069  11.979   1.801   3.542 -0.3042  1.1372  1.6287
  385DOPC  H14S53070  12.083   1.683   3.638  1.2737  0.8217  0.6091
  385DOPC  C21553071  11.991   1.824   3.755 -0.2861  0.5270  0.6280
  385DOPC  H15R53072  11.932   1.773   3.834  1.2224 -3.3775 -0.5737
  385DOPC  H15S53073  11.948   1.926   3.738 -2.4489 -0.5076 -0.5332
  385DOPC  C21653074  12.138   1.844   3.806  0.3070 -0.4339 -0.2734
  385DOPC  H16R53075  12.200   1.881   3.721  0.7623  0.3696  0.4007
  385DOPC  H16S53076  12.171   1.743   3.837  0.3129 -0.2001  0.4867
  385DOPC  C21753077  12.153   1.930   3.934  0.6483  0.1155  0.1146
  385DOPC  H17R53078  12.086   1.882   4.008 -0.9409  1.1920 -0.5760
  385DOPC  H17S53079  12.112   2.029   3.907  0.3077 -0.1150 -0.2370
  385DOPC  C21853080  12.300   1.945   3.983  0.8644  0.2780  0.4242
  385DOPC  H18R53081  12.344   1.854   4.029 -3.3354 -1.8639  0.7329
  385DOPC  H18S53082  12.312   2.033   4.049  0.2232  1.0886 -0.5138
  385DOPC  H18T53083  12.368   1.964   3.897  0.0230  0.6819 -0.1706
  385DOPC   C3353084  11.344   1.014   2.874 -0.4322 -0.1813 -0.1146
  385DOPC   H3X53085  11.300   1.009   2.975  0.2423 -1.1830  0.1413
  385DOPC   H3Y53086  11.329   1.118   2.836 -1.8070 -0.4563 -0.3826
  385DOPC   C3453087  11.490   0.971   2.870  0.3406  0.1486 -0.0289
  385DOPC   H4X53088  11.536   0.977   2.769 -0.7570 -0.4802 -0.5823
  385DOPC   H4Y53089  11.494   0.864   2.898 -0.9154  0.0230 -0.2901
  385DOPC   C3553090  11.575   1.050   2.972 -0.3498  0.0994 -0.3958
  385DOPC   H5X53091  11.562   1.160   2.964  1.6455  0.4908  0.9830
  385DOPC   H5Y53092  11.683   1.027   2.956 -0.3866  0.4924 -1.2497
  385DOPC   C3653093  11.547   1.019   3.119  1.0006 -0.2647 -0.0233
  385DOPC   H6X53094  11.512   1.114   3.164  0.9828 -0.7224  0.9544
  385DOPC   H6Y53095  11.460   0.951   3.122 -0.8734  2.0101  2.1175
  385DOPC   C3753096  11.659   0.943   3.190  0.9061 -0.3946 -0.0727
  385DOPC   H7X53097  11.659   0.840   3.149 -0.7651 -0.6066  0.3937
  385DOPC   H7Y53098  11.760   0.987   3.171  1.8501 -0.4371  3.9336
  385DOPC   C3853099  11.652   0.939   3.349  0.1025 -0.2224  0.6190
  385DOPC   H8X53100  11.727   0.864   3.383  0.2851 -0.1273  0.4362
  385DOPC   H8Y53101  11.554   0.893   3.374 -0.7558  1.2969  0.1958
  385DOPC   C3953102  11.653   1.067   3.426  0.7218  0.1406 -0.3070
  385DOPC   H9X53103  11.629   1.158   3.370 -2.2102  0.4510  1.2552
  385DOPC  C31053104  11.678   1.084   3.555  0.9896 -0.5574  0.3705
  385DOPC  H10X53105  11.686   1.187   3.593 -1.0516 -0.1112 -0.2513
  385DOPC  C31153106  11.694   0.978   3.662  0.7077  0.5626  0.8949
  385DOPC  H11X53107  11.790   0.997   3.713  1.1793 -0.5324  0.4448
  385DOPC  H11Y53108  11.692   0.879   3.612 -0.3372  0.0458  1.9160
  385DOPC  C31253109  11.569   0.972   3.749  0.1471 -0.4231 -0.8338
  385DOPC  H12X53110  11.587   0.887   3.818  0.3174  0.7860  0.6778
  385DOPC  H12Y53111  11.480   0.941   3.691  1.7686 -0.7927 -3.3067
  385DOPC  C31353112  11.549   1.090   3.849  0.0821 -0.0965 -0.7906
  385DOPC  H13X53113  11.653   1.116   3.876  0.0096  0.0959 -0.6915
  385DOPC  H13Y53114  11.504   1.180   3.802 -1.4143 -0.0724  0.5940
  385DOPC  C31453115  11.480   1.041   3.974  0.3879 -0.1082 -0.2771
  385DOPC  H14X53116  11.374   1.027   3.944  0.4320  0.6273 -0.8171
  385DOPC  H14Y53117  11.513   0.941   4.008  1.4391 -0.0444 -1.0564
  385DOPC  C31553118  11.487   1.130   4.094  0.5681  1.1847 -0.1772
  385DOPC  H15X53119  11.397   1.107   4.155  0.4357  0.8828 -0.4822
  385DOPC  H15Y53120  11.486   1.238   4.067  1.4593  0.9823 -1.0949
  385DOPC  C31653121  11.609   1.097   4.175 -0.4198 -0.2286  0.2606
  385DOPC  H16X53122  11.623   0.988   4.191  0.9479  0.0046  0.8649
  385DOPC  H16Y53123  11.693   1.140   4.115 -1.2487  0.6915 -0.2632
  385DOPC  C31753124  11.601   1.164   4.314 -0.2188  0.0663 -0.5499
  385DOPC  H17X53125  11.504   1.117   4.339  0.3404 -0.5827  0.4305
  385DOPC  H17Y53126  11.681   1.130   4.384  1.0568  1.0803 -1.4509
  385DOPC  C31853127  11.587   1.311   4.318  0.4402 -0.4923 -0.0173
  385DOPC  H18X53128  11.507   1.346   4.250  1.4406 -0.8073 -1.4037
  385DOPC  H18Y53129  11.568   1.349   4.421  2.8175  2.5201 -0.5476
  385DOPC  H18Z53130  11.681   1.354   4.277  0.8454 -1.0345  0.3321
  386DOPC     N53131   4.265   6.557   1.919 -0.0322 -0.0290  0.2448
  386DOPC   C1253132   4.175   6.668   1.970 -0.3112  0.0001 -0.7193
  386DOPC  H12A53133   4.130   6.634   2.062 -0.8599 -0.6512 -1.2186
  386DOPC  H12B53134   4.084   6.670   1.911 -0.2212 -1.8408 -0.9842
  386DOPC   C1353135   4.207   6.421   1.962  0.0345  0.4828  0.3349
  386DOPC  H13A53136   4.214   6.416   2.070  0.1198 -0.3575  0.2982
  386DOPC  H13B53137   4.108   6.404   1.922  0.1464  1.4634 -0.4119
  386DOPC  H13C53138   4.274   6.347   1.920 -0.2007 -0.6232  1.8117
  386DOPC   C1453139   4.397   6.566   1.992  0.6611 -0.3181  0.2368
  386DOPC  H14A53140   4.458   6.486   1.954  0.6298  0.2440 -1.0691
  386DOPC  H14B53141   4.446   6.661   1.976  0.8717 -0.6763 -1.4200
  386DOPC  H14C53142   4.379   6.560   2.098  1.5370  0.9869  0.4886
  386DOPC   C1553143   4.288   6.562   1.772 -0.4830  0.4151 -0.2720
  386DOPC  H15A53144   4.194   6.545   1.721 -1.3291 -0.8336  1.5823
  386DOPC  H15B53145   4.358   6.484   1.747 -0.6451 -0.0569  0.7178
  386DOPC  H15C53146   4.317   6.664   1.751 -1.2996  0.6317 -0.4068
  386DOPC   C1153147   4.240   6.809   1.983  0.3267  0.5849  0.5639
  386DOPC  H11A53148   4.170   6.891   2.009  0.5003  0.5221  1.2528
  386DOPC  H11B53149   4.310   6.806   2.070  0.7565  0.7400  0.2276
  386DOPC     P53150   4.221   6.924   1.749 -0.5384  0.5320 -0.2579
  386DOPC   O1353151   4.098   6.850   1.722  0.6148  0.0386 -0.3349
  386DOPC   O1453152   4.308   6.948   1.634 -0.9477 -0.6805  0.0850
  386DOPC   O1253153   4.307   6.846   1.863 -0.3521 -0.6599 -0.3106
  386DOPC   O1153154   4.188   7.059   1.816 -0.7620 -0.3985  0.2451
  386DOPC    C153155   4.276   7.143   1.887 -0.1797  0.6006  1.0746
  386DOPC    HA53156   4.342   7.192   1.812  0.8694 -1.6349  0.4473
  386DOPC    HB53157   4.344   7.091   1.957  1.3908  0.8020 -0.2541
  386DOPC    C253158   4.207   7.231   1.979  0.0321  0.2495  0.0820
  386DOPC    HS53159   4.279   7.283   2.046 -2.2546  1.0268  2.0840
  386DOPC   O2153160   4.109   7.164   2.067  0.6415  0.9507  0.1717
  386DOPC   C2153161   4.160   7.092   2.162  0.5193 -0.4357  0.4396
  386DOPC   O2253162   4.278   7.079   2.183  0.5996  0.0766  0.4250
  386DOPC   C2253163   4.053   7.027   2.249 -0.7513  0.1303 -0.7926
  386DOPC   H2R53164   4.000   6.945   2.195  0.1614 -0.7815 -0.3495
  386DOPC   H2S53165   3.971   7.096   2.276 -0.5704  0.1925 -0.4087
  386DOPC    C353166   4.139   7.346   1.895  0.3756  0.0997 -0.5175
  386DOPC    HX53167   4.041   7.304   1.865 -0.2897  0.3001  1.2961
  386DOPC    HY53168   4.201   7.382   1.810  0.6724 -0.7798 -0.6827
  386DOPC   O3153169   4.099   7.459   1.969 -0.3635 -0.1244 -0.0140
  386DOPC   C3153170   4.179   7.533   2.036  0.2964  0.5090  0.2929
  386DOPC   O3253171   4.301   7.535   2.019  0.4192 -0.2330 -0.1278
  386DOPC   C3253172   4.102   7.611   2.147 -0.7720 -0.4257 -0.1680
  386DOPC   H2X53173   4.151   7.711   2.146 -1.2460 -0.1736 -2.1989
  386DOPC   H2Y53174   3.993   7.626   2.133 -0.4209  1.5721 -0.9680
  386DOPC   C2353175   4.117   6.964   2.381 -0.0512 -0.2388  0.1333
  386DOPC   H3R53176   4.212   6.911   2.359 -0.0735 -1.0571  1.8847
  386DOPC   H3S53177   4.049   6.888   2.424 -0.3268 -0.2070 -0.2473
  386DOPC   C2453178   4.128   7.074   2.488 -0.3117 -0.2327  0.4424
  386DOPC   H4R53179   4.029   7.106   2.528 -0.3201 -1.7212  1.6873
  386DOPC   H4S53180   4.192   7.145   2.432  0.8019 -0.8161  0.9378
  386DOPC   C2553181   4.212   7.025   2.602  0.3473  0.1066  0.3537
  386DOPC   H5R53182   4.297   6.969   2.557  1.1213  2.5577 -1.5122
  386DOPC   H5S53183   4.159   6.954   2.669  0.8555 -0.2802  0.3477
  386DOPC   C2653184   4.269   7.137   2.694 -0.1568  0.4858 -0.1598
  386DOPC   H6R53185   4.302   7.216   2.624 -0.3342  0.1874 -0.5835
  386DOPC   H6S53186   4.363   7.101   2.741  2.3802  3.9144 -2.1268
  386DOPC   C2753187   4.178   7.200   2.804  0.3917  0.3250  0.6038
  386DOPC   H7R53188   4.147   7.118   2.872  1.2511 -1.8335 -1.4600
  386DOPC   H7S53189   4.089   7.231   2.745 -0.0150 -0.9262  0.5156
  386DOPC   C2853190   4.221   7.337   2.865  0.1001 -0.2229  0.1510
  386DOPC   H8R53191   4.130   7.379   2.913  0.1411  3.1770 -2.3652
  386DOPC   H8S53192   4.258   7.403   2.784 -0.8082 -1.6329 -1.4997
  386DOPC   C2953193   4.326   7.307   2.964  0.2754 -0.0433 -0.5362
  386DOPC   H9R53194   4.346   7.199   2.964 -4.3131 -1.1030  0.5790
  386DOPC  C21053195   4.369   7.387   3.070 -0.1622 -0.0199  0.3101
  386DOPC  H10R53196   4.447   7.351   3.138  0.0819  0.1310  0.1155
  386DOPC  C21153197   4.309   7.522   3.099  0.7641  0.1125  0.9647
  386DOPC  H11R53198   4.225   7.552   3.032 -1.4343 -0.8621  3.1374
  386DOPC  H11S53199   4.392   7.594   3.086  0.9775 -0.1122  1.0726
  386DOPC  C21253200   4.249   7.538   3.238  0.0559 -0.7058 -0.2616
  386DOPC  H12R53201   4.221   7.644   3.253 -2.2429 -1.6296  3.2425
  386DOPC  H12S53202   4.322   7.509   3.317 -1.0840 -0.1569  1.0463
  386DOPC  C21353203   4.126   7.452   3.253 -0.3217 -0.3576  0.1514
  386DOPC  H13R53204   4.150   7.343   3.252  0.3919 -0.2304  1.2418
  386DOPC  H13S53205   4.059   7.463   3.165  0.1609  0.0062 -0.1718
  386DOPC  C21453206   4.048   7.480   3.386 -0.4856 -0.8348  0.0411
  386DOPC  H14R53207   4.001   7.580   3.396 -0.8265 -1.0890  1.0570
  386DOPC  H14S53208   4.122   7.482   3.468 -0.2728 -0.6447 -0.1525
  386DOPC  C21553209   3.940   7.377   3.417  0.0854 -0.9834 -0.5798
  386DOPC  H15R53210   3.992   7.279   3.405 -2.2468 -2.2268 -1.1028
  386DOPC  H15S53211   3.863   7.381   3.337 -2.5711  0.2577  1.8585
  386DOPC  C21653212   3.869   7.378   3.557  0.1524 -0.2587 -0.2745
  386DOPC  H16R53213   3.849   7.486   3.573  2.8343  0.3844 -0.7657
  386DOPC  H16S53214   3.931   7.342   3.642  0.6909  2.9505  0.8317
  386DOPC  C21753215   3.737   7.294   3.560 -0.7412 -0.6890  1.2835
  386DOPC  H17R53216   3.759   7.185   3.564 -3.7721 -1.5630 -1.5936
  386DOPC  H17S53217   3.693   7.312   3.460 -0.5402  0.2564  1.3520
  386DOPC  C21853218   3.633   7.341   3.661 -0.2289 -0.0196 -0.3777
  386DOPC  H18R53219   3.626   7.451   3.677 -3.7378  0.3220 -2.9420
  386DOPC  H18S53220   3.649   7.292   3.759 -0.0658  1.6645  0.4863
  386DOPC  H18T53221   3.536   7.310   3.617  0.1923  1.2832 -2.3455
  386DOPC   C3353222   4.129   7.555   2.290 -0.4423  0.1473 -0.0263
  386DOPC   H3X53223   4.095   7.619   2.374 -1.2193 -0.5187  0.1726
  386DOPC   H3Y53224   4.236   7.529   2.305  0.3469  1.1758 -3.0407
  386DOPC   C3453225   4.043   7.426   2.290  0.0656  0.0485  0.2255
  386DOPC   H4X53226   4.108   7.342   2.256 -0.3996 -0.3446  0.2915
  386DOPC   H4Y53227   3.948   7.441   2.234  0.0143 -0.5556  0.1480
  386DOPC   C3553228   4.006   7.386   2.430 -0.3925 -0.2774  0.3185
  386DOPC   H5X53229   4.102   7.385   2.486  0.4753 -0.1653 -1.1235
  386DOPC   H5Y53230   3.964   7.284   2.418 -1.9165  0.6542 -3.5897
  386DOPC   C3653231   3.912   7.480   2.506 -0.2558  0.5563 -0.7865
  386DOPC   H6X53232   3.908   7.582   2.461 -0.1833  1.1841  0.5958
  386DOPC   H6Y53233   3.810   7.437   2.496 -0.0103  0.1043 -1.4385
  386DOPC   C3753234   3.950   7.486   2.655  0.1407 -0.0806 -0.5815
  386DOPC   H7X53235   3.969   7.382   2.691  0.5616  0.0131 -0.5206
  386DOPC   H7Y53236   4.049   7.537   2.659  0.4772 -0.6868 -0.8241
  386DOPC   C3853237   3.839   7.548   2.740 -0.0906 -0.3579  0.2845
  386DOPC   H8X53238   3.738   7.502   2.732 -0.5634  0.4541  1.4498
  386DOPC   H8Y53239   3.833   7.652   2.703 -2.0578 -0.6865 -0.4694
  386DOPC   C3953240   3.868   7.567   2.887  0.3765 -0.3289  0.0051
  386DOPC   H9X53241   3.972   7.554   2.920  0.1015  2.6857  2.6509
  386DOPC  C31053242   3.779   7.603   2.977 -0.5093 -0.1036  0.2299
  386DOPC  H10X53243   3.812   7.602   3.082  1.1389  3.2619 -0.1097
  386DOPC  C31153244   3.634   7.643   2.961  0.3604 -0.3584  0.2473
  386DOPC  H11X53245   3.582   7.584   2.883 -3.1947  1.1991  1.2511
  386DOPC  H11Y53246   3.622   7.748   2.927  0.8216 -0.4966 -0.3719
  386DOPC  C31253247   3.544   7.626   3.085  0.9872  0.1617 -0.4563
  386DOPC  H12X53248   3.588   7.670   3.177  0.1365 -2.3881  1.3055
  386DOPC  H12Y53249   3.540   7.516   3.101  0.7821  0.2724  0.3110
  386DOPC  C31353250   3.400   7.698   3.070 -0.4704  0.1903 -0.2919
  386DOPC  H13X53251   3.414   7.809   3.066  0.2389  0.1433  0.6255
  386DOPC  H13Y53252   3.367   7.663   2.970 -0.9183 -2.3602  0.6768
  386DOPC  C31453253   3.297   7.649   3.172 -0.0802 -0.2384 -0.4021
  386DOPC  H14X53254   3.289   7.538   3.170  0.9652 -0.3127 -1.0354
  386DOPC  H14Y53255   3.333   7.674   3.274 -1.8314  2.5635 -0.3611
  386DOPC  C31553256   3.164   7.709   3.141  0.2519 -0.1614  0.3891
  386DOPC  H15X53257   3.141   7.671   3.039 -0.6543  1.1045  0.0983
  386DOPC  H15Y53258   3.174   7.818   3.124 -1.8823 -0.3429 -2.8420
  386DOPC  C31653259   3.047   7.672   3.237 -0.6881  0.2408 -0.0508
  386DOPC  H16X53260   2.949   7.713   3.205 -1.1151 -1.8551 -1.7024
  386DOPC  H16Y53261   3.034   7.561   3.233  1.2401  0.0092 -2.6289
  386DOPC  C31753262   3.067   7.715   3.386 -0.7593 -0.1116  0.3896
  386DOPC  H17X53263   3.097   7.822   3.395  2.1039 -0.8370  0.1193
  386DOPC  H17Y53264   3.157   7.658   3.416 -0.6949 -0.9735 -1.3008
  386DOPC  C31853265   2.953   7.680   3.479  0.5895  0.6148  0.3863
  386DOPC  H18X53266   2.955   7.740   3.572  0.7151  0.5956  0.3956
  386DOPC  H18Y53267   2.858   7.700   3.425  0.4042 -1.7666 -0.2747
  386DOPC  H18Z53268   2.944   7.573   3.505  1.4232  0.1843 -0.9895
  387DOPC     N53269   6.317   8.616   1.981  0.1152  0.0911 -0.2032
  387DOPC   C1253270   6.180   8.673   1.998  0.0722 -0.2905  0.0595
  387DOPC  H12A53271   6.194   8.761   2.059  1.4346 -0.6118  0.2266
  387DOPC  H12B53272   6.132   8.595   2.055 -1.2861 -0.9725 -1.8944
  387DOPC   C1353273   6.312   8.487   1.902  0.9648  0.2025 -0.2904
  387DOPC  H13A53274   6.412   8.454   1.879  0.2733 -1.5674 -0.9576
  387DOPC  H13B53275   6.258   8.407   1.951  1.0684 -0.0477 -0.5799
  387DOPC  H13C53276   6.261   8.508   1.809 -0.4817 -0.3182  0.3496
  387DOPC   C1453277   6.380   8.571   2.113 -0.0351 -0.5113 -0.0606
  387DOPC  H14A53278   6.318   8.504   2.171  1.1048 -1.0173  0.6045
  387DOPC  H14B53279   6.475   8.527   2.085  0.1734 -0.3710  0.4102
  387DOPC  H14C53280   6.397   8.656   2.178 -2.9066  0.2498 -0.1897
  387DOPC   C1553281   6.406   8.703   1.895 -0.0632 -0.1221  0.4499
  387DOPC  H15A53282   6.353   8.735   1.806  1.1162  0.2084 -0.1504
  387DOPC  H15B53283   6.496   8.649   1.868  0.4471  0.1168  1.6012
  387DOPC  H15C53284   6.447   8.789   1.946  0.6075  0.5047 -1.0697
  387DOPC   C1153285   6.099   8.695   1.874  0.1460  0.0242  0.0087
  387DOPC  H11A53286   6.103   8.606   1.806  0.4186  0.8662 -1.1032
  387DOPC  H11B53287   5.995   8.700   1.913 -0.4248  0.0392 -1.4520
  387DOPC     P53288   6.112   8.959   1.835  0.0537  0.6189 -0.0264
  387DOPC   O1353289   5.964   8.982   1.825 -0.1208 -0.2786  0.2409
  387DOPC   O1453290   6.192   9.045   1.742 -0.0060 -0.2068  0.0214
  387DOPC   O1253291   6.147   8.809   1.801 -0.2141 -0.9975 -0.2628
  387DOPC   O1153292   6.153   8.983   1.985 -0.1381 -0.4179 -0.2650
  387DOPC    C153293   6.238   9.094   2.025 -0.2151  0.3316  0.2654
  387DOPC    HA53294   6.201   9.192   1.987  2.9243  1.0924 -1.1126
  387DOPC    HB53295   6.345   9.076   2.002 -0.6748 -0.8096 -1.1632
  387DOPC    C253296   6.233   9.115   2.177  0.6229  0.1998  0.4602
  387DOPC    HS53297   6.151   9.183   2.210 -0.4063 -0.2658 -1.0145
  387DOPC   O2153298   6.356   9.168   2.223 -0.2708  0.2356 -0.2063
  387DOPC   C2153299   6.371   9.293   2.209  0.1001  0.3312 -0.0313
  387DOPC   O2253300   6.281   9.372   2.178  0.6569 -0.4010 -0.0690
  387DOPC   C2253301   6.518   9.330   2.216 -0.5154  0.6408 -0.0656
  387DOPC   H2R53302   6.535   9.440   2.227  1.5653  0.2127  1.4566
  387DOPC   H2S53303   6.558   9.306   2.115 -0.0344 -0.9777  0.4940
  387DOPC    C353304   6.196   8.981   2.245  0.2570 -0.1721 -0.5614
  387DOPC    HX53305   6.260   8.906   2.194  0.5660  0.3702 -0.9876
  387DOPC    HY53306   6.089   8.957   2.227 -0.7157  2.4067  1.1770
  387DOPC   O3153307   6.221   8.980   2.388  0.0661  0.1120  0.1696
  387DOPC   C3153308   6.319   8.901   2.429  0.2635 -0.2742 -0.5047
  387DOPC   O3253309   6.400   8.853   2.352 -0.6600  0.2062  0.3043
  387DOPC   C3253310   6.310   8.877   2.579  0.0169  0.2634  0.0154
  387DOPC   H2X53311   6.400   8.922   2.625 -0.0283  0.5685 -0.1913
  387DOPC   H2Y53312   6.219   8.921   2.624 -0.3734 -1.3430  0.8721
  387DOPC   C2353313   6.601   9.256   2.321 -0.5373 -0.2878 -0.7980
  387DOPC   H3R53314   6.705   9.293   2.310 -0.7760  0.5924 -0.2292
  387DOPC   H3S53315   6.605   9.148   2.295  1.2797  0.0238 -1.9881
  387DOPC   C2453316   6.556   9.274   2.460  0.2683  0.2450  0.0743
  387DOPC   H4R53317   6.611   9.204   2.527  1.0365 -0.1312 -0.9249
  387DOPC   H4S53318   6.448   9.249   2.466  0.0440  1.4165  2.3990
  387DOPC   C2553319   6.554   9.423   2.509 -0.0284 -0.4257  0.0669
  387DOPC   H5R53320   6.488   9.491   2.451  1.6767  2.3441  1.1867
  387DOPC   H5S53321   6.660   9.458   2.514 -0.4538  0.7614  1.0283
  387DOPC   C2653322   6.496   9.432   2.654 -0.1423  0.2829  0.1836
  387DOPC   H6R53323   6.398   9.380   2.658 -1.5528  2.7103 -0.3235
  387DOPC   H6S53324   6.489   9.541   2.675  2.1838  0.4220  0.4438
  387DOPC   C2753325   6.586   9.375   2.762  0.0131 -0.0166  0.5237
  387DOPC   H7R53326   6.686   9.421   2.744  0.4760 -0.9938  0.5770
  387DOPC   H7S53327   6.586   9.270   2.728 -1.4982 -0.4779  1.8781
  387DOPC   C2853328   6.528   9.378   2.907 -0.0846 -0.3397  0.0797
  387DOPC   H8R53329   6.424   9.339   2.912  0.3415 -1.6433 -0.6906
  387DOPC   H8S53330   6.534   9.485   2.938 -1.4439 -0.2890  0.2061
  387DOPC   C2953331   6.606   9.293   2.999  0.3886 -0.0334 -0.0068
  387DOPC   H9R53332   6.684   9.228   2.958  0.9933 -0.0775  1.1583
  387DOPC  C21053333   6.598   9.310   3.130  0.7327 -0.2980 -0.4811
  387DOPC  H10R53334   6.643   9.235   3.197 -1.7977 -0.8465  0.7163
  387DOPC  C21153335   6.501   9.396   3.205  0.1091 -0.0225 -0.4700
  387DOPC  H11R53336   6.403   9.343   3.207  0.3361 -0.4808 -1.1088
  387DOPC  H11S53337   6.491   9.494   3.154  0.4015  0.9967  1.3659
  387DOPC  C21253338   6.554   9.425   3.356  0.4086 -0.1111 -0.5757
  387DOPC  H12R53339   6.648   9.483   3.347  0.7150 -0.6375 -0.7817
  387DOPC  H12S53340   6.569   9.322   3.393 -1.9791 -1.5300 -3.1612
  387DOPC  C21353341   6.455   9.506   3.445 -0.0292  0.2700  0.0154
  387DOPC  H13R53342   6.401   9.593   3.402 -2.5434 -1.5786 -0.8524
  387DOPC  H13S53343   6.520   9.544   3.527 -0.5702  1.2164  0.0201
  387DOPC  C21453344   6.348   9.415   3.504  0.1486 -0.4950  0.4287
  387DOPC  H14R53345   6.382   9.314   3.535 -1.0466 -0.4858  1.8663
  387DOPC  H14S53346   6.270   9.392   3.428  0.2491  2.0059 -0.5385
  387DOPC  C21553347   6.271   9.494   3.612 -0.6815  0.3866 -0.6143
  387DOPC  H15R53348   6.206   9.559   3.549 -2.0154 -0.8158 -0.5429
  387DOPC  H15S53349   6.335   9.554   3.680 -0.2815 -0.5226 -0.1760
  387DOPC  C21653350   6.171   9.401   3.688  0.0063 -0.1305 -0.0984
  387DOPC  H16R53351   6.221   9.309   3.724 -1.1178 -0.7558 -0.0756
  387DOPC  H16S53352   6.100   9.378   3.606 -0.7771  1.7374  0.0009
  387DOPC  C21753353   6.089   9.476   3.800 -0.0073  0.5128  0.4948
  387DOPC  H17R53354   6.160   9.515   3.876  0.1225  0.0504  0.6104
  387DOPC  H17S53355   6.018   9.405   3.846 -0.1119  0.2533 -0.0620
  387DOPC  C21853356   6.005   9.587   3.740 -0.2624 -0.4281 -0.7435
  387DOPC  H18R53357   5.950   9.617   3.832  0.6692 -2.7202  0.6244
  387DOPC  H18S53358   5.930   9.556   3.664 -0.5927  0.8473 -0.9661
  387DOPC  H18T53359   6.062   9.679   3.716 -3.0543  1.0934 -2.0917
  387DOPC   C3353360   6.301   8.730   2.598 -0.4830 -1.1098 -0.0731
  387DOPC   H3X53361   6.391   8.674   2.565 -0.8435 -0.6810 -1.8932
  387DOPC   H3Y53362   6.208   8.686   2.555 -0.3579  0.4895 -2.0966
  387DOPC   C3453363   6.292   8.696   2.748 -0.0835  0.7535  0.0559
  387DOPC   H4X53364   6.246   8.784   2.797 -1.0405  1.5115 -2.0707
  387DOPC   H4Y53365   6.395   8.676   2.784 -1.2533 -1.6748  2.3523
  387DOPC   C3553366   6.209   8.572   2.776 -0.1362 -0.3943  0.0305
  387DOPC   H5X53367   6.254   8.483   2.728 -1.9612 -1.2606 -0.1554
  387DOPC   H5Y53368   6.104   8.588   2.746 -2.2124 -6.5019  2.5302
  387DOPC   C3653369   6.198   8.549   2.928  0.2641  0.3469 -0.1919
  387DOPC   H6X53370   6.192   8.650   2.973 -1.9026 -0.5228  1.6194
  387DOPC   H6Y53371   6.108   8.492   2.957  2.0111 -2.7449 -0.3804
  387DOPC   C3753372   6.312   8.459   2.989 -0.6038 -0.0174 -0.7249
  387DOPC   H7X53373   6.302   8.356   2.948 -3.8592  0.2359 -0.8188
  387DOPC   H7Y53374   6.414   8.495   2.967 -0.5911  0.4244  0.0099
  387DOPC   C3853375   6.314   8.455   3.148  0.1020 -0.3254  0.1887
  387DOPC   H8X53376   6.406   8.401   3.179  0.7427  1.7827  2.2211
  387DOPC   H8Y53377   6.236   8.384   3.184  0.0465 -0.7270 -0.6952
  387DOPC   C3953378   6.311   8.587   3.222  0.5574  0.2046 -1.3735
  387DOPC   H9X53379   6.211   8.602   3.264  0.3199 -2.3233 -0.9146
  387DOPC  C31053380   6.416   8.683   3.237  0.1426 -0.1241 -0.6718
  387DOPC  H10X53381   6.396   8.774   3.296 -0.4718  0.3834 -1.6277
  387DOPC  C31153382   6.563   8.672   3.191 -0.2331  0.1465  0.4842
  387DOPC  H11X53383   6.585   8.579   3.136 -0.2300  0.9207 -0.8600
  387DOPC  H11Y53384   6.609   8.675   3.292  0.6434  2.8280  0.0858
  387DOPC  C31253385   6.605   8.789   3.103  0.5146 -0.1212  0.7362
  387DOPC  H12X53386   6.710   8.767   3.074  0.7210  2.1587 -0.4555
  387DOPC  H12Y53387   6.603   8.882   3.165 -3.4694 -0.5154  1.4819
  387DOPC  C31353388   6.534   8.801   2.968 -0.1139 -0.0851 -0.1570
  387DOPC  H13X53389   6.556   8.722   2.893 -0.1373  0.1756 -0.4391
  387DOPC  H13Y53390   6.425   8.799   2.988  0.0487 -1.7071  0.6764
  387DOPC  C31453391   6.565   8.928   2.895 -0.4576 -0.4674 -0.3993
  387DOPC  H14X53392   6.491   8.942   2.813 -0.6766 -0.1993 -0.1570
  387DOPC  H14Y53393   6.562   9.018   2.961  0.1260 -0.0995 -0.8611
  387DOPC  C31553394   6.705   8.905   2.839  0.1252  0.0525  0.0640
  387DOPC  H15X53395   6.700   8.815   2.774 -0.4592  0.9192 -1.1263
  387DOPC  H15Y53396   6.786   8.891   2.914  0.3026  1.0581  0.0705
  387DOPC  C31653397   6.756   9.015   2.743  0.2495 -0.5902 -0.4436
  387DOPC  H16X53398   6.668   9.029   2.676 -2.5336  0.9142  3.1964
  387DOPC  H16Y53399   6.754   9.110   2.800 -0.7381 -1.9776  1.9707
  387DOPC  C31753400   6.898   8.996   2.676  0.5029 -0.2745  0.1612
  387DOPC  H17X53401   6.966   8.972   2.761  0.0100  0.9478  0.9189
  387DOPC  H17Y53402   6.900   8.913   2.601 -3.2962  0.0640 -0.4933
  387DOPC  C31853403   6.944   9.128   2.606  0.1340 -0.1987  0.3627
  387DOPC  H18X53404   7.028   9.107   2.536 -1.2135  1.2466 -1.8181
  387DOPC  H18Y53405   6.863   9.157   2.536  1.5542  0.3509 -1.1413
  387DOPC  H18Z53406   6.984   9.216   2.661 -1.6805  0.9597 -0.0997
  388DOPC     N53407   0.295   7.110   1.502  0.3361 -0.6783  0.3031
  388DOPC   C1253408   0.312   7.172   1.641 -0.0027 -0.4502 -0.0159
  388DOPC  H12A53409   0.226   7.138   1.697  0.1369 -0.9677 -0.1111
  388DOPC  H12B53410   0.304   7.279   1.627 -0.1651 -0.5546 -0.7794
  388DOPC   C1353411   0.178   7.169   1.423 -0.3031  0.0763  0.5085
  388DOPC  H13A53412   0.199   7.146   1.320 -1.5705  0.2883  0.1891
  388DOPC  H13B53413   0.083   7.122   1.444 -0.9062 -0.1023 -2.2308
  388DOPC  H13C53414   0.173   7.277   1.424  1.3206  0.1740  1.4225
  388DOPC   C1453415   0.281   6.957   1.503 -0.1465  0.4980  0.2888
  388DOPC  H14A53416   0.196   6.929   1.564  1.2242  4.1783  4.3632
  388DOPC  H14B53417   0.265   6.907   1.409  0.4218 -0.6514  0.7823
  388DOPC  H14C53418   0.368   6.915   1.551 -0.0012 -0.0136 -0.4046
  388DOPC   C1553419   0.414   7.149   1.422 -0.1712  0.0062 -0.1531
  388DOPC  H15A53420   0.405   7.115   1.320 -2.6856 -1.4802  0.4716
  388DOPC  H15B53421   0.509   7.117   1.463  0.4799 -0.3285 -1.8357
  388DOPC  H15C53422   0.422   7.257   1.419  0.7333 -0.0523 -0.1910
  388DOPC   C1153423   0.446   7.135   1.723 -0.9239 -0.1415  0.7420
  388DOPC  H11A53424   0.425   7.164   1.828 -0.5233  0.4081  0.6738
  388DOPC  H11B53425   0.455   7.024   1.717 -3.0602 -0.4248  1.8515
  388DOPC     P53426   0.708   7.161   1.717  0.2055  0.0754 -0.4884
  388DOPC   O1353427   0.800   7.242   1.640  0.8192 -0.4289  0.0871
  388DOPC   O1453428   0.718   7.016   1.705  0.1987  0.0505  0.2028
  388DOPC   O1253429   0.562   7.197   1.673 -0.5395 -0.6574  0.1023
  388DOPC   O1153430   0.713   7.199   1.871 -0.2283  0.9148 -0.0008
  388DOPC    C153431   0.705   7.339   1.897  0.0660 -0.4088 -0.5463
  388DOPC    HA53432   0.597   7.362   1.902 -0.3814 -1.2507 -3.8806
  388DOPC    HB53433   0.755   7.401   1.820  2.1171 -2.0441 -0.6253
  388DOPC    C253434   0.769   7.384   2.028  0.0140  0.5460 -0.5857
  388DOPC    HS53435   0.736   7.489   2.045  2.5655  1.4044 -0.5277
  388DOPC   O2153436   0.913   7.369   2.014  0.6671 -0.4975  0.1471
  388DOPC   C2153437   0.994   7.464   2.058  0.3462  0.4904 -0.8809
  388DOPC   O2253438   0.964   7.577   2.091  0.1261  0.3884 -0.1988
  388DOPC   C2253439   1.133   7.406   2.058  0.4856  0.2591 -1.1439
  388DOPC   H2R53440   1.208   7.483   2.031 -2.4245  3.9976  0.5031
  388DOPC   H2S53441   1.140   7.321   1.987 -0.2866 -0.8155  0.0376
  388DOPC    C353442   0.728   7.298   2.151 -0.5894  0.3897  0.5099
  388DOPC    HX53443   0.776   7.198   2.146  0.7795  0.8883  2.2371
  388DOPC    HY53444   0.618   7.296   2.133 -1.0392  1.3105  2.7691
  388DOPC   O3153445   0.757   7.370   2.274  0.0115 -0.2920  0.0275
  388DOPC   C3153446   0.700   7.315   2.384  0.0512  0.1028  0.2735
  388DOPC   O3253447   0.627   7.222   2.380 -0.1825  0.3855  0.0308
  388DOPC   C3253448   0.731   7.414   2.502 -0.0831  0.5678 -0.3374
  388DOPC   H2X53449   0.819   7.475   2.475  0.2169 -0.1114 -0.9127
  388DOPC   H2Y53450   0.646   7.484   2.521 -2.7764 -2.7927  1.0344
  388DOPC   C2353451   1.168   7.352   2.195 -0.0047  0.1559  0.0160
  388DOPC   H3R53452   1.261   7.292   2.194  0.1380  0.3691  0.4520
  388DOPC   H3S53453   1.093   7.275   2.226 -0.3976  1.0839  1.4886
  388DOPC   C2453454   1.167   7.450   2.310 -0.2137  0.2658  0.3100
  388DOPC   H4R53455   1.080   7.519   2.310 -0.0891  0.4369 -0.6843
  388DOPC   H4S53456   1.256   7.517   2.307 -0.4191  0.5140 -2.1433
  388DOPC   C2553457   1.151   7.382   2.449 -0.3865 -0.2392 -0.1185
  388DOPC   H5R53458   1.236   7.313   2.467  2.7163  2.7843 -1.9883
  388DOPC   H5S53459   1.056   7.326   2.460  0.2181 -1.2202  0.2651
  388DOPC   C2653460   1.156   7.485   2.555 -0.5406  0.4136 -0.1604
  388DOPC   H6R53461   1.079   7.559   2.525 -0.1146  0.5272 -1.0009
  388DOPC   H6S53462   1.255   7.534   2.552 -0.9025  1.1197 -1.2135
  388DOPC   C2753463   1.128   7.426   2.696 -0.5821 -0.1869  0.3079
  388DOPC   H7R53464   1.189   7.335   2.714 -1.5677 -0.8783  0.2156
  388DOPC   H7S53465   1.026   7.385   2.694 -0.8201  0.3909  0.2385
  388DOPC   C2853466   1.152   7.531   2.808  0.4460  0.5335 -0.2072
  388DOPC   H8R53467   1.123   7.477   2.900 -3.4784  1.4736 -0.7430
  388DOPC   H8S53468   1.068   7.602   2.793 -0.1281 -0.0679  0.1661
  388DOPC   C2953469   1.283   7.607   2.825  0.2883  0.1052 -0.0274
  388DOPC   H9R53470   1.329   7.661   2.741  0.8337  0.3123  0.4015
  388DOPC  C21053471   1.350   7.615   2.941 -0.3306  0.4516  0.0978
  388DOPC  H10R53472   1.446   7.668   2.935  0.3561 -0.8888 -1.4581
  388DOPC  C21153473   1.305   7.553   3.075 -0.0670  0.0387  0.4258
  388DOPC  H11R53474   1.196   7.553   3.097  0.1391 -0.0026  1.4611
  388DOPC  H11S53475   1.344   7.630   3.144  0.4838 -1.0347  1.3337
  388DOPC  C21253476   1.356   7.412   3.116  0.1016  0.0756 -0.3318
  388DOPC  H12R53477   1.464   7.395   3.099 -0.0276 -1.0629 -0.1230
  388DOPC  H12S53478   1.302   7.338   3.053  0.5961  0.7370 -1.5534
  388DOPC  C21353479   1.330   7.385   3.265  0.7374 -0.9070 -0.1082
  388DOPC  H13R53480   1.221   7.398   3.284  1.0475  1.9369  0.1799
  388DOPC  H13S53481   1.396   7.453   3.324 -0.0246 -1.2932  1.2327
  388DOPC  C21453482   1.355   7.243   3.313 -0.0947 -0.3077  0.3679
  388DOPC  H14R53483   1.462   7.219   3.297  0.3828  1.0657  1.3070
  388DOPC  H14S53484   1.288   7.178   3.253  0.2188  0.1720 -0.5176
  388DOPC  C21553485   1.324   7.232   3.471 -0.1295 -0.1310 -0.1869
  388DOPC  H15R53486   1.320   7.123   3.495 -1.2461 -0.5379 -1.9660
  388DOPC  H15S53487   1.220   7.266   3.491 -0.4952 -0.0211 -2.0632
  388DOPC  C21653488   1.421   7.315   3.558  0.2662 -0.5062 -0.2019
  388DOPC  H16R53489   1.425   7.423   3.531 -1.1181 -0.7090 -1.2669
  388DOPC  H16S53490   1.526   7.282   3.546 -0.1610 -1.0731 -3.1528
  388DOPC  C21753491   1.396   7.315   3.708  0.3055  0.4821  0.0204
  388DOPC  H17R53492   1.323   7.395   3.734 -1.5773 -1.1926  0.2037
  388DOPC  H17S53493   1.492   7.350   3.752  0.2584 -0.4668  0.9187
  388DOPC  C21853494   1.356   7.184   3.771  0.7322  0.3465 -0.7172
  388DOPC  H18R53495   1.420   7.104   3.729 -1.6337 -0.9395 -2.1434
  388DOPC  H18S53496   1.249   7.159   3.751 -0.2369  0.4270  3.5155
  388DOPC  H18T53497   1.372   7.184   3.881 -0.0130 -3.2095 -0.4757
  388DOPC   C3353498   0.758   7.327   2.632  0.1881 -0.3013  0.5159
  388DOPC   H3X53499   0.852   7.269   2.638  1.5676  1.7973  0.0823
  388DOPC   H3Y53500   0.677   7.255   2.658  1.1129 -0.9729  1.6312
  388DOPC   C3453501   0.762   7.436   2.748  0.2886 -0.6488 -0.3335
  388DOPC   H4X53502   0.661   7.481   2.757  0.0801 -0.6146 -2.4586
  388DOPC   H4Y53503   0.835   7.516   2.725 -0.0944  0.2646  1.4406
  388DOPC   C3553504   0.793   7.364   2.882 -0.0902 -0.1498  0.5486
  388DOPC   H5X53505   0.898   7.329   2.871  0.7373  1.4681  2.7209
  388DOPC   H5Y53506   0.725   7.275   2.881 -0.3836  0.0760  0.1758
  388DOPC   C3653507   0.759   7.432   3.011 -0.1850 -0.5083  0.6552
  388DOPC   H6X53508   0.803   7.534   3.022  2.1507 -1.0378 -2.4365
  388DOPC   H6Y53509   0.652   7.436   3.039 -0.0501  0.3481  1.0932
  388DOPC   C3753510   0.843   7.365   3.123 -0.5775 -0.2412  0.7516
  388DOPC   H7X53511   0.949   7.368   3.088 -0.0494 -3.0261  1.8350
  388DOPC   H7Y53512   0.847   7.426   3.215  0.0442  2.4414 -0.9626
  388DOPC   C3853513   0.815   7.214   3.151 -0.0409  0.9091 -0.5156
  388DOPC   H8X53514   0.789   7.159   3.058 -0.2671  0.4773 -0.2007
  388DOPC   H8Y53515   0.726   7.197   3.215  0.8090  1.8818  0.9994
  388DOPC   C3953516   0.928   7.143   3.225 -0.7087  0.2554  0.5673
  388DOPC   H9X53517   0.941   7.189   3.325 -0.5643  0.1904  0.5780
  388DOPC  C31053518   1.027   7.071   3.169 -0.5171  0.0842 -0.6032
  388DOPC  H10X53519   1.093   7.004   3.225  0.0083  0.4189 -0.8109
  388DOPC  C31153520   1.032   7.032   3.026  0.1196 -0.2303  0.1826
  388DOPC  H11X53521   0.934   7.056   2.978 -1.1196 -1.2579  2.0380
  388DOPC  H11Y53522   1.047   6.922   3.025  1.8428 -0.1756  3.9139
  388DOPC  C31253523   1.137   7.102   2.938 -0.1227  0.2414 -0.7614
  388DOPC  H12X53524   1.139   7.212   2.950  1.7539  0.2658 -0.9308
  388DOPC  H12Y53525   1.125   7.080   2.830 -1.9384 -0.9290 -0.3642
  388DOPC  C31353526   1.281   7.064   2.966  0.1562 -0.2961  0.2877
  388DOPC  H13X53527   1.354   7.133   2.918  0.4856 -0.6122  0.3330
  388DOPC  H13Y53528   1.296   7.064   3.076  0.8179 -1.8020  0.2210
  388DOPC  C31453529   1.312   6.928   2.913 -0.6155 -0.5425 -0.1660
  388DOPC  H14X53530   1.230   6.864   2.951 -0.9346  0.1851  0.3979
  388DOPC  H14Y53531   1.307   6.931   2.802 -2.7545  2.5559 -0.1054
  388DOPC  C31553532   1.449   6.878   2.974  0.7314  0.1171  0.0617
  388DOPC  H15X53533   1.454   6.767   2.969 -3.8581 -0.3306  1.1410
  388DOPC  H15Y53534   1.445   6.915   3.078 -0.2216  2.1575 -0.6620
  388DOPC  C31653535   1.576   6.940   2.915  0.5760  0.1820 -0.6024
  388DOPC  H16X53536   1.584   6.941   2.804  3.6773 -0.7006 -0.4772
  388DOPC  H16Y53537   1.579   7.048   2.943  1.4757  0.0334 -0.1023
  388DOPC  C31753538   1.707   6.883   2.974  0.4134 -0.0252  0.7442
  388DOPC  H17X53539   1.692   6.895   3.084 -1.6289 -0.2119  0.5216
  388DOPC  H17Y53540   1.716   6.778   2.940 -0.4691  0.7917 -2.2700
  388DOPC  C31853541   1.828   6.952   2.909  0.8241 -0.0365 -0.0759
  388DOPC  H18X53542   1.816   7.061   2.925 -1.2535 -0.4893  1.9721
  388DOPC  H18Y53543   1.931   6.920   2.937  1.1191 -1.3466 -2.3915
  388DOPC  H18Z53544   1.822   6.932   2.800 -0.0218 -4.0409  0.5526
  389DOPC     N53545   0.824   0.869   1.947  0.3520  0.2301 -0.3722
  389DOPC   C1253546   0.883   1.000   2.005 -0.3459  0.3611  0.0774
  389DOPC  H12A53547   0.806   1.066   2.041 -0.5786 -0.0363  0.3263
  389DOPC  H12B53548   0.943   1.046   1.929  2.7487 -1.1899  1.3779
  389DOPC   C1353549   0.763   0.780   2.056 -0.1974 -0.3343  0.4715
  389DOPC  H13A53550   0.690   0.827   2.120 -0.3173  1.5063 -0.9047
  389DOPC  H13B53551   0.715   0.693   2.014  0.5550  0.5440 -2.5016
  389DOPC  H13C53552   0.849   0.755   2.117  0.5170 -1.0777 -0.7924
  389DOPC   C1453553   0.926   0.786   1.873  0.5087 -0.3282  0.3842
  389DOPC  H14A53554   0.975   0.838   1.792 -0.1474  0.6256  0.5793
  389DOPC  H14B53555   1.005   0.756   1.940 -0.6956 -3.1870  0.6298
  389DOPC  H14C53556   0.876   0.702   1.827  2.1072 -1.0728 -0.0563
  389DOPC   C1553557   0.714   0.900   1.855 -0.1720 -0.0515  0.6671
  389DOPC  H15A53558   0.751   0.955   1.769 -0.3423 -0.1070  0.5589
  389DOPC  H15B53559   0.623   0.946   1.891 -0.8916 -0.3113 -0.7574
  389DOPC  H15C53560   0.682   0.807   1.812  0.2937  0.4698 -0.8925
  389DOPC   C1153561   0.986   0.982   2.120 -0.3868 -0.0595  0.1359
  389DOPC  H11A53562   1.013   1.081   2.161  0.9067 -0.1839 -0.3547
  389DOPC  H11B53563   0.943   0.928   2.207 -1.7081 -1.0680 -1.0893
  389DOPC     P53564   1.235   0.980   2.032  0.5344 -0.0883  0.4303
  389DOPC   O1353565   1.200   1.081   1.929 -0.1916  0.1796 -0.0581
  389DOPC   O1453566   1.343   0.883   2.009 -0.5402 -0.4596 -0.0612
  389DOPC   O1253567   1.107   0.910   2.076  0.7600  0.6572  0.5569
  389DOPC   O1153568   1.276   1.058   2.161 -0.7830 -0.4396 -0.2346
  389DOPC    C153569   1.328   0.994   2.283 -0.4538  0.3252  0.2191
  389DOPC    HA53570   1.417   1.055   2.313  1.6680 -1.0395 -2.7981
  389DOPC    HB53571   1.373   0.893   2.274 -2.7689 -0.6671 -0.8098
  389DOPC    C253572   1.230   0.993   2.398  0.1698  0.5432  1.0051
  389DOPC    HS53573   1.148   0.927   2.360 -0.4672  1.5065  0.6794
  389DOPC   O2153574   1.177   1.124   2.411  0.5974 -0.1551 -0.0166
  389DOPC   C2153575   1.045   1.128   2.439 -0.2259 -0.0931  0.1579
  389DOPC   O2253576   0.970   1.030   2.438 -0.8735  0.1447  0.1190
  389DOPC   C2253577   1.009   1.275   2.461  0.3842  0.0876 -0.2811
  389DOPC   H2R53578   0.972   1.318   2.365 -1.4431 -2.0068 -0.5922
  389DOPC   H2S53579   1.102   1.324   2.497  0.9053 -0.6372 -0.6371
  389DOPC    C353580   1.280   0.949   2.542 -0.3123 -0.2465  0.2651
  389DOPC    HX53581   1.360   1.016   2.579  0.5305 -1.3701  0.5516
  389DOPC    HY53582   1.342   0.858   2.552 -0.9992 -0.5586  2.0505
  389DOPC   O3153583   1.172   0.949   2.638 -0.2583  0.1941  0.8131
  389DOPC   C3153584   1.103   0.834   2.650  0.3603 -0.5511  0.0209
  389DOPC   O3253585   1.123   0.732   2.589 -0.5079  0.3864  0.0607
  389DOPC   C3253586   1.003   0.858   2.761 -0.4492  0.1052  0.4395
  389DOPC   H2X53587   1.060   0.889   2.851  1.8701  0.5388 -1.1003
  389DOPC   H2Y53588   0.933   0.941   2.738 -1.5999 -1.1933 -0.9706
  389DOPC   C2353589   0.904   1.279   2.571  0.3133 -0.0848 -0.1671
  389DOPC   H3R53590   0.967   1.233   2.651 -0.4274 -1.0171 -0.1086
  389DOPC   H3S53591   0.817   1.211   2.560  2.3297 -2.6150 -1.4768
  389DOPC   C2453592   0.865   1.416   2.618 -0.0194 -0.8422 -0.9124
  389DOPC   H4R53593   0.947   1.488   2.639  0.4065 -1.2031 -1.3135
  389DOPC   H4S53594   0.810   1.409   2.714  0.0538 -1.0787 -0.8871
  389DOPC   C2553595   0.757   1.487   2.531  0.3656  0.0708 -0.0428
  389DOPC   H5R53596   0.663   1.430   2.547  0.5991 -0.5759 -0.8979
  389DOPC   H5S53597   0.777   1.505   2.423  1.9663  0.9842  0.3647
  389DOPC   C2653598   0.741   1.632   2.572 -0.1186  0.0477 -0.1063
  389DOPC   H6R53599   0.650   1.675   2.525  0.1714 -1.5438 -2.2135
  389DOPC   H6S53600   0.835   1.682   2.541 -2.1224  1.9700 -3.7375
  389DOPC   C2753601   0.714   1.651   2.722 -0.2643 -0.1637  0.3906
  389DOPC   H7R53602   0.800   1.619   2.785  1.1268 -0.4433 -1.5374
  389DOPC   H7S53603   0.623   1.595   2.752  1.7856 -3.2338  1.4110
  389DOPC   C2853604   0.699   1.799   2.762 -0.5697  0.1678  0.0254
  389DOPC   H8R53605   0.795   1.841   2.725 -1.2663  1.6979 -0.1307
  389DOPC   H8S53606   0.694   1.806   2.872  2.3555  0.9299  0.1771
  389DOPC   C2953607   0.580   1.865   2.695 -0.6539 -0.1529  0.7056
  389DOPC   H9R53608   0.550   1.807   2.606  0.0433 -2.3978  1.8647
  389DOPC  C21053609   0.509   1.968   2.745  0.2446  0.2972 -0.1349
  389DOPC  H10R53610   0.417   1.992   2.689 -0.1857 -0.4807  0.2256
  389DOPC  C21153611   0.517   2.037   2.874  0.1856  0.3492  0.1086
  389DOPC  H11R53612   0.519   2.147   2.858 -2.6536  0.2299 -1.8499
  389DOPC  H11S53613   0.610   2.020   2.932  1.1658  2.4128 -0.7470
  389DOPC  C21253614   0.409   2.000   2.967 -0.3776  0.1010  1.0025
  389DOPC  H12R53615   0.432   1.899   3.007 -2.2061 -0.4746  0.6686
  389DOPC  H12S53616   0.310   1.998   2.917  0.5969 -1.0346 -1.0038
  389DOPC  C21353617   0.399   2.082   3.093 -0.2505 -0.1960 -0.5092
  389DOPC  H13R53618   0.485   2.076   3.163 -0.8584  2.1688  0.5270
  389DOPC  H13S53619   0.311   2.050   3.153  1.5006 -1.1520  1.6572
  389DOPC  C21453620   0.398   2.230   3.071  0.1543  0.0856 -0.2630
  389DOPC  H14R53621   0.330   2.249   2.985  0.6432 -0.5124 -0.7818
  389DOPC  H14S53622   0.500   2.260   3.041  1.1025 -2.0736  0.6299
  389DOPC  C21553623   0.348   2.316   3.191  0.8847  0.0851 -0.3016
  389DOPC  H15R53624   0.244   2.292   3.221  0.7245  0.8954 -0.1886
  389DOPC  H15S53625   0.343   2.417   3.146 -0.3459 -0.5024 -1.5503
  389DOPC  C21653626   0.451   2.316   3.316  0.6675  0.4255  0.6027
  389DOPC  H16R53627   0.433   2.217   3.364 -0.2582  1.0713  1.6361
  389DOPC  H16S53628   0.430   2.393   3.393 -0.0004  0.8038  0.0467
  389DOPC  C21753629   0.604   2.328   3.278 -0.1561  0.3551  0.5454
  389DOPC  H17R53630   0.619   2.401   3.195  0.9428 -2.2799 -1.7197
  389DOPC  H17S53631   0.646   2.230   3.248  0.5203  0.2949  1.6353
  389DOPC  C21853632   0.686   2.354   3.401 -0.0597  0.0211  0.0101
  389DOPC  H18R53633   0.795   2.338   3.391 -0.2446 -3.6202  2.0913
  389DOPC  H18S53634   0.654   2.293   3.489 -1.0911 -0.2043 -0.4980
  389DOPC  H18T53635   0.668   2.460   3.431 -0.5519 -0.0535 -0.0053
  389DOPC   C3353636   0.924   0.728   2.790  1.0294 -0.0823  0.3535
  389DOPC   H3X53637   0.969   0.628   2.772  2.5590  0.5860  0.3279
  389DOPC   H3Y53638   0.840   0.729   2.717  0.9640  0.4236  0.4309
  389DOPC   C3453639   0.861   0.709   2.934 -0.0210  0.2991  0.4200
  389DOPC   H4X53640   0.786   0.628   2.927  1.6321 -1.2531 -0.2959
  389DOPC   H4Y53641   0.809   0.804   2.956  1.9135  1.3781  0.6191
  389DOPC   C3553642   0.952   0.679   3.055 -0.4923  0.1441  0.5242
  389DOPC   H5X53643   0.911   0.695   3.157  1.2528  3.4471  0.8508
  389DOPC   H5Y53644   1.021   0.766   3.048 -0.1283 -0.2326 -1.0534
  389DOPC   C3653645   1.020   0.543   3.056 -0.2586 -0.0093 -0.0369
  389DOPC   H6X53646   0.961   0.481   2.985  0.1376 -0.5889  0.1328
  389DOPC   H6Y53647   1.121   0.557   3.013  0.8446  0.9531  2.6369
  389DOPC   C3753648   1.012   0.460   3.186 -0.3324  0.9935 -0.4212
  389DOPC   H7X53649   0.907   0.469   3.223 -0.7688 -0.0758 -1.3250
  389DOPC   H7Y53650   1.037   0.355   3.162  4.0461  2.0801 -1.3868
  389DOPC   C3853651   1.112   0.511   3.291 -0.1174  0.9045 -0.3574
  389DOPC   H8X53652   1.097   0.621   3.303  0.9818  1.1557 -1.0893
  389DOPC   H8Y53653   1.218   0.494   3.263 -0.4476 -0.2287 -0.9941
  389DOPC   C3953654   1.091   0.436   3.419  0.1020 -0.3672 -0.7903
  389DOPC   H9X53655   1.143   0.340   3.433  0.4078  0.0395  1.1978
  389DOPC  C31053656   0.988   0.459   3.509  0.1411 -0.2362  0.1188
  389DOPC  H10X53657   0.963   0.373   3.573  2.1063 -0.9631 -0.0359
  389DOPC  C31153658   0.881   0.567   3.489 -0.3006  0.5599  0.6980
  389DOPC  H11X53659   0.786   0.520   3.459 -0.4757  0.5000  1.3281
  389DOPC  H11Y53660   0.905   0.645   3.413 -3.0744  1.9358  1.1020
  389DOPC  C31253661   0.855   0.643   3.620 -0.6634 -0.3573  0.0957
  389DOPC  H12X53662   0.839   0.569   3.702 -0.5626  0.7294  1.1317
  389DOPC  H12Y53663   0.763   0.702   3.599 -0.2470 -0.0886 -0.9987
  389DOPC  C31353664   0.967   0.744   3.655  0.2110 -0.1835 -0.0013
  389DOPC  H13X53665   1.060   0.684   3.666 -0.1083 -0.6823  0.0297
  389DOPC  H13Y53666   0.985   0.794   3.557 -0.8669 -0.8919 -0.5780
  389DOPC  C31453667   0.945   0.823   3.777  0.6315  0.0239 -0.0203
  389DOPC  H14X53668   0.866   0.895   3.747  1.3227  0.1957 -1.4849
  389DOPC  H14Y53669   0.899   0.762   3.858  0.5538 -1.1387 -0.9042
  389DOPC  C31553670   1.070   0.899   3.830  0.2641  0.2349  0.3649
  389DOPC  H15X53671   1.108   0.970   3.754  0.0541  0.0710  0.1050
  389DOPC  H15Y53672   1.146   0.821   3.853 -0.0493 -0.0697  0.3650
  389DOPC  C31653673   1.041   0.987   3.958 -0.2006 -0.5443 -0.2644
  389DOPC  H16X53674   1.131   1.047   3.980 -0.7653 -0.5383  2.3376
  389DOPC  H16Y53675   0.974   1.072   3.933  1.5239  0.2494 -2.4831
  389DOPC  C31753676   0.995   0.914   4.089 -0.0227  0.5277 -0.2173
  389DOPC  H17X53677   0.894   0.872   4.072  0.3534 -1.3328  1.7023
  389DOPC  H17Y53678   1.056   0.825   4.113 -1.4305  0.3642  3.3196
  389DOPC  C31853679   0.985   1.015   4.205 -0.7424 -0.6556  0.8752
  389DOPC  H18X53680   1.086   1.062   4.211 -0.1598 -1.2472 -2.3684
  389DOPC  H18Y53681   0.921   1.101   4.176  0.7784  0.1481 -0.2912
  389DOPC  H18Z53682   0.954   0.983   4.306 -0.0620 -0.8772  1.0204
  390DOPC     N53683   8.894   0.474   2.205  0.3907 -0.2055 -0.3204
  390DOPC   C1253684   8.837   0.378   2.314  0.0866  0.1664 -0.3268
  390DOPC  H12A53685   8.903   0.364   2.397 -0.1580 -0.4982 -0.2365
  390DOPC  H12B53686   8.823   0.283   2.264  0.3584 -0.7565  1.2892
  390DOPC   C1353687   8.793   0.491   2.097 -0.0236 -0.5406  0.7615
  390DOPC  H13A53688   8.698   0.505   2.146 -0.3489 -1.0457  0.2855
  390DOPC  H13B53689   8.816   0.573   2.030  2.3089 -1.0519  0.8557
  390DOPC  H13C53690   8.792   0.405   2.031  1.4215 -1.8740  2.3742
  390DOPC   C1453691   9.024   0.422   2.156  0.2373  0.3322  0.2317
  390DOPC  H14A53692   9.096   0.410   2.235 -0.4405  1.4164  1.0394
  390DOPC  H14B53693   8.992   0.323   2.125  0.4189  0.5192 -0.5812
  390DOPC  H14C53694   9.058   0.476   2.069  0.0458  0.1315  0.0306
  390DOPC   C1553695   8.916   0.611   2.275 -0.0282  0.7962 -0.2679
  390DOPC  H15A53696   8.992   0.613   2.351  0.2824  0.8903 -0.5827
  390DOPC  H15B53697   8.827   0.647   2.324 -0.2266  0.2459 -0.2128
  390DOPC  H15C53698   8.953   0.677   2.198 -1.4590  1.0355 -0.7803
  390DOPC   C1153699   8.700   0.411   2.376 -0.2661  0.3522 -0.7946
  390DOPC  H11A53700   8.623   0.432   2.299 -0.6679 -0.7842 -0.7250
  390DOPC  H11B53701   8.663   0.324   2.435  0.2185 -0.6714 -1.9659
  390DOPC     P53702   8.661   0.531   2.606 -0.1984 -0.1398  0.0377
  390DOPC   O1353703   8.516   0.556   2.583 -0.0646  0.2036  0.8845
  390DOPC   O1453704   8.741   0.641   2.669  0.5764 -0.0838 -0.1901
  390DOPC   O1253705   8.727   0.517   2.462 -0.0288  0.0111  0.4687
  390DOPC   O1153706   8.680   0.396   2.678  0.3692  0.4459  0.0367
  390DOPC    C153707   8.807   0.336   2.693 -0.2751 -0.2951 -0.1452
  390DOPC    HA53708   8.882   0.376   2.622 -0.4033  1.3405  0.5928
  390DOPC    HB53709   8.803   0.227   2.672 -0.5484  0.2690 -3.4633
  390DOPC    C253710   8.854   0.343   2.842  0.5886 -0.5151  0.2339
  390DOPC    HS53711   8.940   0.272   2.844  0.1433 -1.1604 -1.4391
  390DOPC   O2153712   8.752   0.324   2.938  0.6014 -0.1937  0.7330
  390DOPC   C2153713   8.802   0.288   3.056 -0.1970 -0.7464  0.2974
  390DOPC   O2253714   8.906   0.230   3.078 -0.4474  0.1981  0.5262
  390DOPC   C2253715   8.711   0.340   3.169  0.5967 -0.2122 -0.9594
  390DOPC   H2R53716   8.621   0.275   3.165  0.3543 -0.0872  1.2672
  390DOPC   H2S53717   8.683   0.444   3.143  3.1282  0.4408 -1.3533
  390DOPC    C353718   8.912   0.484   2.867  0.1946 -0.8097  0.3063
  390DOPC    HX53719   8.835   0.564   2.872  1.8048  0.7639  0.7264
  390DOPC    HY53720   8.961   0.513   2.772 -1.2148  0.1574 -0.1580
  390DOPC   O3153721   8.998   0.498   2.982  0.3336  0.2177 -0.1895
  390DOPC   C3153722   9.126   0.461   2.960  0.4242 -0.5126  0.1821
  390DOPC   O3253723   9.167   0.428   2.855 -0.2344  0.2162  0.4879
  390DOPC   C3253724   9.207   0.497   3.093  0.0822  0.5978 -0.5567
  390DOPC   H2X53725   9.316   0.502   3.071  0.9658  1.1226  3.3629
  390DOPC   H2Y53726   9.164   0.593   3.127  0.9574  1.3175 -1.4154
  390DOPC   C2353727   8.779   0.343   3.306 -0.3650 -0.2777 -0.1053
  390DOPC   H3R53728   8.875   0.400   3.305 -0.0437 -0.8110  0.0855
  390DOPC   H3S53729   8.801   0.242   3.346 -0.6073 -1.0340 -1.8145
  390DOPC   C2453730   8.687   0.410   3.403  0.3604 -0.5028  0.5221
  390DOPC   H4R53731   8.595   0.351   3.420  2.0613 -3.2027  1.0097
  390DOPC   H4S53732   8.654   0.504   3.354  0.9935 -1.1417 -1.2021
  390DOPC   C2553733   8.760   0.449   3.528  0.2528  0.9633 -0.3256
  390DOPC   H5R53734   8.701   0.527   3.581  0.6341  1.3275 -0.4327
  390DOPC   H5S53735   8.866   0.478   3.518  2.1155 -2.5333  4.7569
  390DOPC   C2653736   8.760   0.333   3.630 -0.1886  0.5609  0.0247
  390DOPC   H6R53737   8.833   0.252   3.610 -0.2033  0.2557  1.1194
  390DOPC   H6S53738   8.655   0.296   3.636  0.5525 -2.2861 -2.1728
  390DOPC   C2753739   8.797   0.390   3.773  0.3734 -0.0218 -0.0830
  390DOPC   H7R53740   8.791   0.298   3.833 -2.9650 -1.1780 -1.9255
  390DOPC   H7S53741   8.724   0.466   3.809  0.7435 -0.0616  0.7614
  390DOPC   C2853742   8.941   0.458   3.785  0.4352 -0.6982 -0.7540
  390DOPC   H8R53743   8.946   0.515   3.689  0.3633  1.1895  0.3156
  390DOPC   H8S53744   9.023   0.383   3.795  1.0229  0.0687  0.3941
  390DOPC   C2953745   8.973   0.549   3.900  0.0177  0.5001  0.3353
  390DOPC   H9R53746   9.056   0.617   3.875 -1.7236  2.0127 -1.6140
  390DOPC  C21053747   8.921   0.553   4.017  0.5168 -0.0261 -0.5552
  390DOPC  H10R53748   8.970   0.620   4.090 -1.4171  0.6861  0.1446
  390DOPC  C21153749   8.812   0.479   4.080 -0.4902 -0.7968 -0.1128
  390DOPC  H11R53750   8.829   0.371   4.099 -0.0203 -0.4699  1.5017
  390DOPC  H11S53751   8.719   0.487   4.020 -0.5369  1.1867  0.1473
  390DOPC  C21253752   8.762   0.548   4.214  0.1068  0.9444  0.3982
  390DOPC  H12R53753   8.674   0.485   4.240 -0.5273  1.0054 -1.4834
  390DOPC  H12S53754   8.728   0.653   4.211  0.5241  1.0820  0.3573
  390DOPC  C21353755   8.864   0.516   4.327  0.1580  0.1242  0.2611
  390DOPC  H13R53756   8.950   0.587   4.325  2.1360 -2.1736 -0.2653
  390DOPC  H13S53757   8.913   0.418   4.313  0.3331  0.2922 -0.3067
  390DOPC  C21453758   8.793   0.512   4.468  0.7498  0.1055  0.1437
  390DOPC  H14R53759   8.854   0.443   4.529  1.3347 -1.9029 -2.5275
  390DOPC  H14S53760   8.689   0.474   4.452  0.7721  0.1385 -0.0819
  390DOPC  C21553761   8.782   0.646   4.549 -0.9666  0.8781  0.5422
  390DOPC  H15R53762   8.715   0.718   4.497 -0.6712 -1.2255 -3.1363
  390DOPC  H15S53763   8.875   0.705   4.540  0.3658 -1.2736 -0.7499
  390DOPC  C21653764   8.751   0.602   4.698  0.0188  0.1066 -0.1066
  390DOPC  H16R53765   8.844   0.555   4.736 -0.2755 -1.6701 -1.4110
  390DOPC  H16S53766   8.678   0.519   4.682 -1.8847  2.1889 -3.1286
  390DOPC  C21753767   8.700   0.709   4.789 -0.4557 -0.0735 -0.0451
  390DOPC  H17R53768   8.630   0.777   4.737  1.2513  0.1470 -2.2033
  390DOPC  H17S53769   8.784   0.774   4.821  0.5702  0.1500 -2.9259
  390DOPC  C21853770   8.639   0.642   4.913  0.4267 -0.1020 -0.2812
  390DOPC  H18R53771   8.711   0.579   4.969  1.2353  0.1040 -1.0443
  390DOPC  H18S53772   8.566   0.565   4.881 -0.6901 -0.0144  1.8746
  390DOPC  H18T53773   8.580   0.714   4.973  0.7265 -0.2811  0.2361
  390DOPC   C3353774   9.179   0.399   3.206 -0.0542  0.9303  0.2243
  390DOPC   H3X53775   9.262   0.326   3.199  0.6088  1.4718  1.9668
  390DOPC   H3Y53776   9.082   0.346   3.201  0.1950  0.4863  0.0992
  390DOPC   C3453777   9.174   0.472   3.338 -0.2378  0.2892  0.1033
  390DOPC   H4X53778   9.084   0.439   3.394  1.4869  0.1357  3.0005
  390DOPC   H4Y53779   9.153   0.581   3.332  0.0203  0.3404  0.0912
  390DOPC   C3553780   9.295   0.455   3.433 -0.1024 -0.4391  0.6171
  390DOPC   H5X53781   9.293   0.535   3.510  1.1020  0.7957 -0.5768
  390DOPC   H5Y53782   9.387   0.470   3.373 -0.0173  1.1660  1.0826
  390DOPC   C3653783   9.301   0.317   3.487  0.4458  0.6562 -0.2129
  390DOPC   H6X53784   9.214   0.310   3.556 -0.7859 -0.3822 -1.8157
  390DOPC   H6Y53785   9.308   0.243   3.405 -1.6706 -0.5276  0.6109
  390DOPC   C3753786   9.428   0.288   3.570 -0.2535 -0.3700 -0.3571
  390DOPC   H7X53787   9.511   0.335   3.513 -1.4539  2.4171 -0.0101
  390DOPC   H7Y53788   9.412   0.352   3.660 -0.7130 -0.9552 -0.0072
  390DOPC   C3853789   9.440   0.147   3.636 -0.4204  0.2696  0.2546
  390DOPC   H8X53790   9.378   0.152   3.727 -0.2501  1.5116  0.3304
  390DOPC   H8Y53791   9.542   0.128   3.677 -1.2904 -1.1545  1.8305
  390DOPC   C3953792   9.394   0.032   3.548 -0.2414  0.1225  0.1008
  390DOPC   H9X53793   9.286   0.031   3.526 -0.0115  1.0066 -1.2033
  390DOPC  C31053794   9.472  -0.057   3.488  0.2063  0.2210 -0.0272
  390DOPC  H10X53795   9.423  -0.132   3.424  1.3990  1.4164 -2.4802
  390DOPC  C31153796   9.621  -0.054   3.476 -0.0694 -0.1526 -0.5260
  390DOPC  H11X53797   9.666  -0.131   3.542  1.7098  1.0476 -0.2550
  390DOPC  H11Y53798   9.664   0.041   3.514  0.9309 -0.2270 -1.4158
  390DOPC  C31253799   9.681  -0.083   3.336  0.0823  0.4078  0.5113
  390DOPC  H12X53800   9.657  -0.188   3.312 -1.4230  0.4913  1.4967
  390DOPC  H12Y53801   9.790  -0.068   3.345  0.0097  0.4496  1.5027
  390DOPC  C31353802   9.611   0.001   3.230  0.0807  0.6249  0.6106
  390DOPC  H13X53803   9.664  -0.022   3.135 -0.9312 -1.9646  0.5950
  390DOPC  H13Y53804   9.506  -0.034   3.216 -0.0192  1.8333 -2.4428
  390DOPC  C31453805   9.612   0.155   3.250 -0.0867 -0.9009  0.3433
  390DOPC  H14X53806   9.522   0.182   3.309 -0.1749 -0.7066  0.1224
  390DOPC  H14Y53807   9.700   0.194   3.306 -1.3641  2.5630  0.1522
  390DOPC  C31553808   9.605   0.224   3.111  0.1298  0.9750 -0.0056
  390DOPC  H15X53809   9.506   0.214   3.061 -0.1483  0.4734  0.6327
  390DOPC  H15Y53810   9.671   0.172   3.038 -0.8450 -1.6605  0.8557
  390DOPC  C31653811   9.621   0.373   3.114 -0.2191  0.0607  0.1814
  390DOPC  H16X53812   9.531   0.422   3.158 -1.2762  0.2246 -2.0055
  390DOPC  H16Y53813   9.714   0.401   3.167  1.1822 -1.1539 -1.5036
  390DOPC  C31753814   9.638   0.429   2.970  0.2746 -0.2711 -0.3025
  390DOPC  H17X53815   9.727   0.402   2.909  0.0527 -0.0812 -0.7130
  390DOPC  H17Y53816   9.548   0.398   2.912 -0.5094 -0.1421  0.8010
  390DOPC  C31853817   9.630   0.579   2.971 -0.1330 -0.5505 -0.5370
  390DOPC  H18X53818   9.716   0.617   3.030 -1.1209  0.7098  0.1394
  390DOPC  H18Y53819   9.654   0.622   2.872  0.5954 -0.2609 -0.2387
  390DOPC  H18Z53820   9.541   0.623   3.020  0.5227  0.4068 -0.1934
  391DOPC     N53821   6.681   6.942   2.024  0.4281 -0.5998 -0.0414
  391DOPC   C1253822   6.543   6.933   1.960 -0.1721  0.4333  0.3200
  391DOPC  H12A53823   6.552   6.862   1.880  0.8204  1.1223 -0.1993
  391DOPC  H12B53824   6.516   7.027   1.915  0.5505 -0.8517 -3.0790
  391DOPC   C1353825   6.710   6.807   2.073  0.8195  0.4432  0.2712
  391DOPC  H13A53826   6.642   6.790   2.156  0.8460  0.2821  0.2599
  391DOPC  H13B53827   6.696   6.724   2.007 -0.8354 -1.2541  2.5957
  391DOPC  H13C53828   6.811   6.795   2.110  1.1527 -2.4495 -1.3383
  391DOPC   C1453829   6.694   7.048   2.127  0.7633 -0.1181  0.5807
  391DOPC  H14A53830   6.674   7.138   2.071 -2.2443  0.5047  2.3820
  391DOPC  H14B53831   6.620   7.026   2.203 -0.4134  0.6621 -0.3054
  391DOPC  H14C53832   6.792   7.049   2.173  1.3961 -1.9056 -0.6349
  391DOPC   C1553833   6.782   6.968   1.915 -0.8443 -0.2882 -0.0512
  391DOPC  H15A53834   6.883   6.971   1.953  0.7150  3.1884 -3.6957
  391DOPC  H15B53835   6.768   7.063   1.866 -1.1714 -0.8167 -1.0025
  391DOPC  H15C53836   6.791   6.887   1.845  0.2361 -0.9556  0.8227
  391DOPC   C1153837   6.436   6.895   2.057 -0.3206 -0.1840 -0.0556
  391DOPC  H11A53838   6.455   6.789   2.084 -0.5893 -0.3717 -0.5879
  391DOPC  H11B53839   6.437   6.954   2.152  0.7979  0.0130 -0.1766
  391DOPC     P53840   6.224   7.019   1.967 -0.0737 -0.4191 -0.0873
  391DOPC   O1353841   6.171   7.002   1.833  0.2411 -0.3438  0.2672
  391DOPC   O1453842   6.305   7.140   1.985  0.2090 -0.6313  0.0391
  391DOPC   O1253843   6.309   6.893   2.002 -0.0302  0.2418  0.4746
  391DOPC   O1153844   6.098   7.013   2.060 -0.4250  0.0770 -0.1484
  391DOPC    C153845   6.118   6.955   2.191 -0.0906 -0.2466 -0.2817
  391DOPC    HA53846   6.184   6.866   2.188  1.5267  0.8948 -0.1606
  391DOPC    HB53847   6.025   6.902   2.221  0.4938 -0.1553  1.8350
  391DOPC    C253848   6.148   7.059   2.300 -1.1394  0.7211  0.1248
  391DOPC    HS53849   6.254   7.090   2.298  0.1687 -3.0328  1.9806
  391DOPC   O2153850   6.114   6.997   2.423 -0.6271 -0.4065 -0.3905
  391DOPC   C2153851   6.192   6.890   2.460 -0.3054 -0.1146 -0.2613
  391DOPC   O2253852   6.296   6.861   2.404 -0.6507 -0.6613 -0.2411
  391DOPC   C2253853   6.133   6.818   2.579  0.4249  0.1478  0.9586
  391DOPC   H2R53854   6.098   6.719   2.544  2.4081 -0.0916 -0.5474
  391DOPC   H2S53855   6.051   6.881   2.620 -0.7123  0.9030 -2.2244
  391DOPC    C353856   6.062   7.187   2.282  1.1881  0.2977 -0.1432
  391DOPC    HX53857   5.956   7.156   2.282  1.4009 -0.4859  0.9632
  391DOPC    HY53858   6.080   7.224   2.179 -0.9951  0.6084 -0.4492
  391DOPC   O3153859   6.090   7.289   2.374  0.0501 -0.0696 -0.1363
  391DOPC   C3153860   6.002   7.395   2.378 -0.1509  0.5339  0.3271
  391DOPC   O3253861   5.915   7.406   2.297  0.2101 -0.5415  0.2345
  391DOPC   C3253862   6.035   7.486   2.491  0.0537  0.1183  0.5623
  391DOPC   H2X53863   6.145   7.503   2.485 -0.3204  2.5823 -0.2912
  391DOPC   H2Y53864   5.985   7.584   2.478  2.3958  1.3482  0.1779
  391DOPC   C2353865   6.232   6.784   2.699  0.1664 -0.2561 -1.5219
  391DOPC   H3R53866   6.292   6.873   2.726 -3.0002  1.6165 -0.1222
  391DOPC   H3S53867   6.299   6.700   2.668 -1.3946 -1.7244 -1.0517
  391DOPC   C2453868   6.158   6.736   2.820  0.0397 -0.0866 -0.0633
  391DOPC   H4R53869   6.124   6.630   2.811  0.7554 -0.3070 -0.1989
  391DOPC   H4S53870   6.067   6.800   2.830 -0.0167 -0.5320  3.6900
  391DOPC   C2553871   6.234   6.760   2.949 -0.0745 -0.2646 -0.4344
  391DOPC   H5R53872   6.236   6.870   2.966 -1.6364  0.0160 -1.8887
  391DOPC   H5S53873   6.338   6.730   2.923  0.4587  0.1688  1.0927
  391DOPC   C2653874   6.185   6.682   3.075  0.1105  0.2834  0.7054
  391DOPC   H6R53875   6.213   6.575   3.066 -0.6454  0.0711  0.8303
  391DOPC   H6S53876   6.075   6.683   3.061  0.1316 -0.4678  0.4721
  391DOPC   C2753877   6.217   6.755   3.209 -0.2055  0.3623  0.3721
  391DOPC   H7R53878   6.175   6.858   3.209 -2.9365 -0.6376 -1.2685
  391DOPC   H7S53879   6.327   6.761   3.223 -0.4986  1.4333  2.5974
  391DOPC   C2853880   6.149   6.688   3.333  0.2702 -0.1524  0.3061
  391DOPC   H8R53881   6.200   6.594   3.363  1.3431  0.0860 -0.6987
  391DOPC   H8S53882   6.042   6.673   3.308  0.2605 -0.9331  0.8175
  391DOPC   C2953883   6.153   6.788   3.445 -0.1458 -0.4609  0.1094
  391DOPC   H9R53884   6.061   6.848   3.446 -0.5350 -1.0400  0.0374
  391DOPC  C21053885   6.251   6.806   3.541 -0.1090 -0.2263  0.1711
  391DOPC  H10R53886   6.242   6.886   3.616  0.6775 -0.7243  0.8191
  391DOPC  C21153887   6.382   6.736   3.548  0.6221 -0.1548 -0.7151
  391DOPC  H11R53888   6.458   6.793   3.490  0.9063  1.0124  0.7499
  391DOPC  H11S53889   6.385   6.637   3.497 -0.0791 -0.7259  0.3200
  391DOPC  C21253890   6.434   6.693   3.683  0.6089  0.1271  0.4492
  391DOPC  H12R53891   6.500   6.603   3.675 -0.4119 -0.6936  1.0856
  391DOPC  H12S53892   6.344   6.652   3.733  1.2108 -1.0367  0.6313
  391DOPC  C21353893   6.506   6.803   3.755 -0.2086  0.0201 -0.6220
  391DOPC  H13R53894   6.507   6.897   3.697 -1.5747  0.6562  0.3223
  391DOPC  H13S53895   6.611   6.768   3.760 -0.3919 -0.4447  0.3453
  391DOPC  C21453896   6.468   6.849   3.895 -0.3913  1.1911 -0.1904
  391DOPC  H14R53897   6.547   6.924   3.918  0.4927 -0.4800  2.7314
  391DOPC  H14S53898   6.475   6.761   3.963 -0.6428  0.0898 -1.5474
  391DOPC  C21553899   6.338   6.919   3.935 -0.0654  0.1064  0.3886
  391DOPC  H15R53900   6.340   6.938   4.044 -0.4614 -0.4548  0.4968
  391DOPC  H15S53901   6.261   6.840   3.919  0.5833 -0.9393  2.2272
  391DOPC  C21653902   6.313   7.054   3.877  0.1055 -0.5261  0.5231
  391DOPC  H16R53903   6.355   7.068   3.775  1.2034 -0.8809  0.9038
  391DOPC  H16S53904   6.370   7.127   3.938 -0.5251  0.8594 -0.5025
  391DOPC  C21753905   6.164   7.097   3.884 -1.0660 -0.1613  0.0458
  391DOPC  H17R53906   6.131   7.071   3.987 -0.1938 -1.5036  0.0211
  391DOPC  H17S53907   6.092   7.049   3.814  0.0974  0.5943 -1.7223
  391DOPC  C21853908   6.139   7.247   3.862  0.1139 -0.6907 -0.5313
  391DOPC  H18R53909   6.037   7.283   3.888  0.5133  0.5133 -0.5926
  391DOPC  H18S53910   6.166   7.272   3.757  0.2387 -3.8128 -1.3421
  391DOPC  H18T53911   6.212   7.309   3.917 -0.3002  0.8280 -1.6438
  391DOPC   C3353912   5.986   7.429   2.624  0.4209  0.1857  0.5076
  391DOPC   H3X53913   6.039   7.488   2.702  1.2411 -1.1614  1.0195
  391DOPC   H3Y53914   6.014   7.321   2.623  2.6285  0.7068 -0.8503
  391DOPC   C3453915   5.836   7.446   2.641  0.2302  0.4119  1.3480
  391DOPC   H4X53916   5.786   7.392   2.557  2.0029  1.0727 -0.1930
  391DOPC   H4Y53917   5.806   7.551   2.618 -2.4444 -0.0699  2.2680
  391DOPC   C3553918   5.764   7.413   2.766 -0.0583  0.0489  0.4210
  391DOPC   H5X53919   5.658   7.443   2.754  0.3336  1.4115  0.1705
  391DOPC   H5Y53920   5.808   7.469   2.851  0.8638 -0.5311  0.3373
  391DOPC   C3653921   5.790   7.266   2.810 -0.0286  0.2644  0.4540
  391DOPC   H6X53922   5.734   7.191   2.751 -2.2036  0.8873  1.6131
  391DOPC   H6Y53923   5.897   7.238   2.797  0.7072  2.5636  1.0705
  391DOPC   C3753924   5.760   7.236   2.955  0.2431 -0.1792  0.0679
  391DOPC   H7X53925   5.819   7.297   3.026  1.0968 -0.9414  0.0199
  391DOPC   H7Y53926   5.652   7.249   2.978  0.8075  3.9214  1.3043
  391DOPC   C3853927   5.796   7.089   2.999 -0.4036 -0.7216  0.1988
  391DOPC   H8X53928   5.907   7.082   3.006 -0.4661 -0.9059  1.2981
  391DOPC   H8Y53929   5.766   7.012   2.925  0.0185 -1.6871  0.9987
  391DOPC   C3953930   5.726   7.065   3.132 -0.2132 -0.1105  0.5046
  391DOPC   H9X53931   5.623   7.030   3.117  0.2926 -0.9053 -1.4350
  391DOPC  C31053932   5.770   7.095   3.253  0.2160 -0.2355 -0.2301
  391DOPC  H10X53933   5.711   7.056   3.338  1.0022  0.0181  0.4449
  391DOPC  C31153934   5.906   7.162   3.277  0.2459  0.0816  0.3112
  391DOPC  H11X53935   5.942   7.209   3.183  0.7524 -0.1610  0.3819
  391DOPC  H11Y53936   5.983   7.087   3.303 -0.9870 -1.7014 -0.9062
  391DOPC  C31253937   5.912   7.266   3.397 -0.1848  0.8606 -0.0677
  391DOPC  H12X53938   6.012   7.314   3.391  0.5162 -0.5945 -0.5662
  391DOPC  H12Y53939   5.895   7.213   3.493  0.2995  0.7666 -0.0276
  391DOPC  C31353940   5.821   7.389   3.383 -0.0529 -0.2375  0.1983
  391DOPC  H13X53941   5.841   7.455   3.297 -1.1098 -0.9908 -0.6662
  391DOPC  H13Y53942   5.716   7.359   3.362 -0.0960 -1.6302  2.1229
  391DOPC  C31453943   5.830   7.467   3.521  0.2160  0.9040  0.4965
  391DOPC  H14X53944   5.736   7.526   3.528 -0.9008 -1.0563  3.8222
  391DOPC  H14Y53945   5.816   7.392   3.601 -3.3519 -0.8482 -1.5006
  391DOPC  C31553946   5.963   7.541   3.531  0.4658  0.4093  0.3303
  391DOPC  H15X53947   5.984   7.590   3.433 -1.0699 -2.9471 -1.8525
  391DOPC  H15Y53948   6.028   7.452   3.531  0.6971  0.5774  0.7580
  391DOPC  C31653949   5.985   7.643   3.644  0.5854 -0.3404  0.0826
  391DOPC  H16X53950   5.900   7.712   3.630 -0.8586 -2.2026 -0.8202
  391DOPC  H16Y53951   5.974   7.597   3.745 -0.3388 -2.2026 -0.8156
  391DOPC  C31753952   6.124   7.706   3.639 -0.0424  0.5882  0.1795
  391DOPC  H17X53953   6.117   7.789   3.712 -1.5694  1.7294 -1.1787
  391DOPC  H17Y53954   6.203   7.639   3.677 -0.9218 -1.7235 -1.7575
  391DOPC  C31853955   6.162   7.774   3.508 -0.2092 -0.4591  0.4185
  391DOPC  H18X53956   6.242   7.847   3.532 -0.5174 -0.1999  0.6719
  391DOPC  H18Y53957   6.198   7.694   3.440  1.2890  0.8399 -0.3840
  391DOPC  H18Z53958   6.078   7.832   3.464  0.6412 -0.4268 -1.2187
  392DOPC     N53959   1.697   1.512   2.167 -0.0213  0.3290  0.1947
  392DOPC   C1253960   1.595   1.401   2.190  0.4026  0.4272 -0.5846
  392DOPC  H12A53961   1.498   1.448   2.199  0.5749  0.4715  1.3570
  392DOPC  H12B53962   1.616   1.356   2.286 -0.9899  0.5797 -0.1865
  392DOPC   C1353963   1.670   1.575   2.038 -0.0166 -0.7770  0.1241
  392DOPC  H13A53964   1.699   1.503   1.963  1.8855 -1.3655  1.3615
  392DOPC  H13B53965   1.564   1.588   2.021  0.2799  0.9840 -0.5910
  392DOPC  H13C53966   1.730   1.663   2.019  1.6820 -1.8774  0.2014
  392DOPC   C1453967   1.842   1.474   2.185  1.0768 -0.9517 -0.8824
  392DOPC  H14A53968   1.856   1.426   2.281  0.9492  2.3480  0.9274
  392DOPC  H14B53969   1.884   1.413   2.106  0.2849 -0.7512 -1.4667
  392DOPC  H14C53970   1.902   1.564   2.192  0.3757 -0.6069  2.4245
  392DOPC   C1553971   1.670   1.630   2.260 -0.2513 -0.2968 -0.5370
  392DOPC  H15A53972   1.703   1.592   2.356  1.9287 -0.0174 -1.1251
  392DOPC  H15B53973   1.569   1.666   2.249  0.0899  1.2850  1.1619
  392DOPC  H15C53974   1.738   1.711   2.239 -0.1651 -0.3136 -0.3260
  392DOPC   C1153975   1.579   1.282   2.092 -0.4154  0.6707  0.5426
  392DOPC  H11A53976   1.486   1.226   2.116  0.1863  0.4620  2.6055
  392DOPC  H11B53977   1.557   1.325   1.992 -3.3712 -2.7440 -0.5042
  392DOPC     P53978   1.734   1.107   2.217  0.6175  0.5072 -0.0662
  392DOPC   O1353979   1.876   1.123   2.236 -0.1876  0.3592 -0.1788
  392DOPC   O1453980   1.696   0.965   2.195 -0.3418  0.6128 -1.0332
  392DOPC   O1253981   1.685   1.188   2.087  0.0302 -0.2766 -0.3862
  392DOPC   O1153982   1.659   1.168   2.345  0.1272  0.4318  0.2181
  392DOPC    C153983   1.741   1.216   2.458 -0.1809 -0.0909  0.0615
  392DOPC    HA53984   1.812   1.293   2.423 -0.8288 -0.1766 -1.5300
  392DOPC    HB53985   1.802   1.133   2.501 -1.5334 -0.0345  2.1878
  392DOPC    C253986   1.650   1.291   2.564  0.2726  0.6606 -0.4821
  392DOPC    HS53987   1.605   1.385   2.524  2.1167  1.5782 -0.4888
  392DOPC   O2153988   1.740   1.313   2.672  0.1584  0.0253 -0.5340
  392DOPC   C2153989   1.712   1.407   2.762 -0.5493 -0.1160 -0.1755
  392DOPC   O2253990   1.631   1.497   2.744  0.2426  0.2912  0.1107
  392DOPC   C2253991   1.785   1.374   2.885  0.2306  0.1240  0.0489
  392DOPC   H2R53992   1.827   1.471   2.919 -0.1167 -0.0536  1.0221
  392DOPC   H2S53993   1.855   1.293   2.853 -1.9098 -1.2769 -1.3301
  392DOPC    C353994   1.524   1.206   2.602  0.2597 -0.0352  0.1584
  392DOPC    HX53995   1.566   1.110   2.639  0.1283  0.0924  0.6468
  392DOPC    HY53996   1.473   1.180   2.507 -0.1506  0.8683  0.1312
  392DOPC   O3153997   1.443   1.274   2.692 -0.2545  1.0274 -0.1217
  392DOPC   C3153998   1.350   1.351   2.639  0.2083  0.1372 -0.1865
  392DOPC   O3253999   1.349   1.382   2.522  0.1345 -0.3689  0.0066
  392DOPC   C3254000   1.253   1.395   2.744 -0.2422  0.2169  1.6927
  392DOPC   H2X54001   1.305   1.478   2.795  1.4001 -1.1765  2.3941
  392DOPC   H2Y54002   1.153   1.419   2.702 -0.1124 -0.8939  0.6888
  392DOPC   C2354003   1.689   1.318   2.992  0.1850 -0.0289 -0.1712
  392DOPC   H3R54004   1.615   1.250   2.943  0.5448  1.2253 -2.5711
  392DOPC   H3S54005   1.634   1.392   3.053 -0.2170  0.9707 -1.7047
  392DOPC   C2454006   1.757   1.218   3.088 -0.0677 -0.1698  0.5884
  392DOPC   H4R54007   1.852   1.265   3.124  0.4049 -2.0896  2.0335
  392DOPC   H4S54008   1.787   1.130   3.027 -0.2647  0.9412 -1.1951
  392DOPC   C2554009   1.662   1.170   3.199  0.0724 -0.4198 -0.2253
  392DOPC   H5R54010   1.573   1.135   3.143  0.2578  0.0930 -0.8582
  392DOPC   H5S54011   1.618   1.255   3.255  1.6685 -0.9071  1.8764
  392DOPC   C2654012   1.717   1.059   3.284 -0.2495  0.2671  0.6683
  392DOPC   H6R54013   1.796   1.095   3.354 -0.8836 -0.5034  1.8084
  392DOPC   H6S54014   1.786   0.996   3.223  1.0103  1.6819  0.5694
  392DOPC   C2754015   1.612   0.987   3.373 -0.6054  0.4163 -0.5791
  392DOPC   H7R54016   1.658   0.897   3.419 -1.6375 -0.3996 -1.1193
  392DOPC   H7S54017   1.542   0.941   3.301 -0.3737  1.8297 -1.7501
  392DOPC   C2854018   1.547   1.060   3.496 -0.0093  0.4493 -0.4139
  392DOPC   H8R54019   1.491   1.149   3.458 -2.3934 -0.6721  0.2738
  392DOPC   H8S54020   1.629   1.101   3.558  1.7840  1.2890 -3.1839
  392DOPC   C2954021   1.454   0.967   3.567  0.3362  0.0106 -0.2651
  392DOPC   H9R54022   1.488   0.927   3.664 -1.4938 -1.2108 -0.0731
  392DOPC  C21054023   1.324   0.936   3.534 -0.4374 -0.0195  1.0119
  392DOPC  H10R54024   1.263   0.884   3.608  2.8290 -1.4519  2.8921
  392DOPC  C21154025   1.252   0.994   3.408 -0.3416 -0.0297  0.0018
  392DOPC  H11R54026   1.311   1.069   3.352 -1.4690  0.4620 -0.5539
  392DOPC  H11S54027   1.169   1.056   3.450 -0.7522  1.0265 -2.2156
  392DOPC  C21254028   1.192   0.887   3.319 -0.4127 -0.5754 -0.1938
  392DOPC  H12R54029   1.111   0.929   3.254  1.9878  1.5406 -2.0532
  392DOPC  H12S54030   1.149   0.800   3.373  1.7840 -2.7356 -1.7091
  392DOPC  C21354031   1.289   0.808   3.233 -0.0372 -0.8191 -0.0662
  392DOPC  H13R54032   1.254   0.709   3.196 -0.8926 -0.6350  0.2316
  392DOPC  H13S54033   1.380   0.782   3.291 -0.0744  1.9107  1.3729
  392DOPC  C21454034   1.353   0.888   3.119  0.2746 -0.3280  1.0067
  392DOPC  H14R54035   1.414   0.976   3.149 -1.2239  2.1632 -2.6228
  392DOPC  H14S54036   1.262   0.920   3.064 -0.4427 -2.6162  0.7279
  392DOPC  C21554037   1.446   0.803   3.036 -0.0124 -0.2169  0.2277
  392DOPC  H15R54038   1.402   0.707   3.002  0.4594 -1.1180  2.0041
  392DOPC  H15S54039   1.533   0.772   3.098  1.5566  0.9676 -1.2698
  392DOPC  C21654040   1.493   0.890   2.910  0.6417  0.1404  0.3151
  392DOPC  H16R54041   1.515   0.993   2.944 -0.4325 -0.0609  1.7235
  392DOPC  H16S54042   1.408   0.897   2.839 -0.3022  1.0563  1.4829
  392DOPC  C21754043   1.608   0.825   2.823  1.1298  0.3633  0.1623
  392DOPC  H17R54044   1.699   0.824   2.886  0.9471 -0.2021  0.4180
  392DOPC  H17S54045   1.636   0.897   2.743 -0.1171  0.7991  0.0846
  392DOPC  C21854046   1.573   0.684   2.781 -0.3800  0.4685  0.3618
  392DOPC  H18R54047   1.556   0.615   2.866  0.0884 -0.9839 -0.7015
  392DOPC  H18S54048   1.646   0.648   2.706 -3.4290  0.8545 -3.0508
  392DOPC  H18T54049   1.478   0.696   2.724  0.2096 -0.1676 -0.7713
  392DOPC   C3354050   1.237   1.282   2.849 -0.0343  0.2935  0.0584
  392DOPC   H3X54051   1.320   1.285   2.923  1.4796  2.1813 -1.6006
  392DOPC   H3Y54052   1.241   1.178   2.809 -1.2661  0.7919 -1.4682
  392DOPC   C3454053   1.107   1.302   2.928 -0.1080  0.1362 -0.2432
  392DOPC   H4X54054   1.012   1.323   2.874  0.5821 -0.1061 -1.6017
  392DOPC   H4Y54055   1.134   1.397   2.981  0.0531 -0.7882  1.3884
  392DOPC   C3554056   1.074   1.187   3.027 -0.1786 -0.6297  0.8415
  392DOPC   H5X54057   1.153   1.171   3.104  0.7703 -1.3951 -0.2558
  392DOPC   H5Y54058   1.077   1.094   2.968  2.8047 -0.7393  1.0264
  392DOPC   C3654059   0.949   1.215   3.105  0.6114 -0.1714 -0.1336
  392DOPC   H6X54060   0.870   1.225   3.028  0.1467  1.6593  0.5181
  392DOPC   H6Y54061   0.909   1.131   3.166 -1.0551 -0.7641 -1.9370
  392DOPC   C3754062   0.956   1.338   3.196 -0.7760  0.7728  0.1737
  392DOPC   H7X54063   1.061   1.352   3.231 -0.7961  0.2807  0.4372
  392DOPC   H7Y54064   0.948   1.436   3.144  1.1806  0.1547 -1.4377
  392DOPC   C3854065   0.856   1.321   3.315 -0.0565 -0.4154 -0.4074
  392DOPC   H8X54066   0.758   1.287   3.275 -0.2971  2.5983 -2.6710
  392DOPC   H8Y54067   0.835   1.426   3.344  0.4310  0.2485 -2.3551
  392DOPC   C3954068   0.901   1.234   3.431 -0.4521 -0.5352  0.1144
  392DOPC   H9X54069   1.007   1.232   3.460 -0.3419  0.1587 -0.2196
  392DOPC  C31054070   0.834   1.131   3.492  0.0151  0.3155  0.4824
  392DOPC  H10X54071   0.870   1.097   3.590  0.2425  0.4666  0.4520
  392DOPC  C31154072   0.706   1.072   3.443  0.2403  0.0979 -0.1516
  392DOPC  H11X54073   0.651   1.140   3.375 -0.0775 -0.9766 -1.0038
  392DOPC  H11Y54074   0.643   1.040   3.528  0.6816 -0.7412 -0.1261
  392DOPC  C31254075   0.732   0.945   3.363  0.1543  0.0829  0.6044
  392DOPC  H12X54076   0.756   0.867   3.438 -1.9346  0.0415  1.3090
  392DOPC  H12Y54077   0.826   0.956   3.306 -1.1808 -0.0219 -1.7527
  392DOPC  C31354078   0.601   0.904   3.292 -0.2026  0.5725 -0.2530
  392DOPC  H13X54079   0.512   0.902   3.359 -0.2453 -2.0478 -0.2887
  392DOPC  H13Y54080   0.585   0.988   3.221 -1.0789 -0.1523 -0.9223
  392DOPC  C31454081   0.603   0.764   3.228  0.1837  0.9052 -0.0524
  392DOPC  H14X54082   0.694   0.751   3.166  0.3580 -2.6837  0.7071
  392DOPC  H14Y54083   0.600   0.680   3.301 -0.5173 -1.6065 -2.7954
  392DOPC  C31554084   0.478   0.748   3.140 -0.3423  0.1640  1.0916
  392DOPC  H15X54085   0.485   0.831   3.066 -1.4381  0.3352  1.1604
  392DOPC  H15Y54086   0.390   0.765   3.205 -1.2802 -1.8836  0.4147
  392DOPC  C31654087   0.474   0.609   3.082 -0.4940 -0.5998 -0.0678
  392DOPC  H16X54088   0.577   0.580   3.052  0.0461 -1.6298  2.4804
  392DOPC  H16Y54089   0.453   0.535   3.162 -0.4700  1.2002  1.6802
  392DOPC  C31754090   0.399   0.603   2.949 -0.1907 -0.1916 -0.3330
  392DOPC  H17X54091   0.395   0.706   2.906 -2.0917  0.0223  0.2529
  392DOPC  H17Y54092   0.456   0.547   2.872  1.2898  1.7784 -0.7679
  392DOPC  C31854093   0.253   0.560   2.974  0.1680 -0.2866 -0.9217
  392DOPC  H18X54094   0.242   0.471   3.041  0.2185  0.5444  0.2187
  392DOPC  H18Y54095   0.206   0.646   3.026  0.4914  0.0760 -1.2278
  392DOPC  H18Z54096   0.203   0.542   2.877  3.4647 -2.2727 -2.4270
  393DOPC     N54097  11.823  11.145   2.016  0.2398 -0.7917 -0.3017
  393DOPC   C1254098  11.674  11.148   2.029 -0.0432  0.3168  0.0462
  393DOPC  H12A54099  11.640  11.049   2.056  0.8402 -0.4713 -1.5925
  393DOPC  H12B54100  11.638  11.164   1.929  2.6041  1.6315 -0.8014
  393DOPC   C1354101  11.876  11.108   2.154  1.1548  1.0466  0.1500
  393DOPC  H13A54102  11.812  11.153   2.228 -0.8702  0.6108 -1.2705
  393DOPC  H13B54103  11.866  11.001   2.166  0.1501  1.0951 -0.2266
  393DOPC  H13C54104  11.982  11.130   2.161  1.3219  0.8565 -1.3641
  393DOPC   C1454105  11.875  11.283   1.985  0.0365  0.4955  0.1579
  393DOPC  H14A54106  11.981  11.284   2.003  0.2366 -0.2263 -0.8597
  393DOPC  H14B54107  11.830  11.316   1.892 -0.4076  0.2066  0.2630
  393DOPC  H14C54108  11.844  11.348   2.065 -0.2789  0.0479  0.4043
  393DOPC   C1554109  11.869  11.059   1.906 -0.3696  0.7706 -0.6482
  393DOPC  H15A54110  11.857  11.099   1.806  0.6011  0.0209 -1.0724
  393DOPC  H15B54111  11.818  10.964   1.899  0.3618  0.2539  0.7168
  393DOPC  H15C54112  11.973  11.039   1.923 -0.3004  1.9891  0.5388
  393DOPC   C1154113  11.609  11.246   2.117  0.2678  0.4081 -0.6178
  393DOPC  H11A54114  11.513  11.202   2.154  1.7959 -1.9782  0.7606
  393DOPC  H11B54115  11.660  11.244   2.215  1.7158 -1.9121 -1.3342
  393DOPC     P54116  11.496  11.413   1.947  0.0190  0.4433 -0.0861
  393DOPC   O1354117  11.451  11.296   1.866  0.1708 -0.4558 -0.2018
  393DOPC   O1454118  11.540  11.529   1.872  0.0831  0.1546  0.2483
  393DOPC   O1254119  11.599  11.376   2.057  0.2805  0.2135 -0.2565
  393DOPC   O1154120  11.370  11.455   2.035 -0.5422  0.1865  0.3559
  393DOPC    C154121  11.391  11.555   2.136  0.5424 -0.0053  0.1299
  393DOPC    HA54122  11.310  11.630   2.129 -0.8784 -1.4084  0.7114
  393DOPC    HB54123  11.491  11.603   2.137  1.0641 -1.0252 -0.7314
  393DOPC    C254124  11.377  11.492   2.279 -0.1756 -0.4400  0.0375
  393DOPC    HS54125  11.463  11.421   2.284  0.7938  0.7005 -0.1674
  393DOPC   O2154126  11.253  11.409   2.283 -0.3957 -0.1716 -0.0568
  393DOPC   C2154127  11.255  11.300   2.354  0.6319 -0.2295 -0.4682
  393DOPC   O2254128  11.349  11.232   2.392  0.0924  0.2127 -0.3878
  393DOPC   C2254129  11.112  11.258   2.381 -0.3024 -0.4783 -0.9773
  393DOPC   H2R54130  11.062  11.234   2.285 -0.5921 -0.1135 -0.9201
  393DOPC   H2S54131  11.060  11.337   2.440  0.1043 -1.7043  1.1487
  393DOPC    C354132  11.384  11.586   2.393  0.8366 -0.3623 -0.5656
  393DOPC    HX54133  11.288  11.638   2.414  0.5907 -1.5592  1.5846
  393DOPC    HY54134  11.466  11.660   2.379 -0.5072  0.8844 -2.3626
  393DOPC   O3154135  11.407  11.512   2.517 -0.1288 -0.4700  0.1368
  393DOPC   C3154136  11.530  11.470   2.539  0.0797 -0.0424  0.0804
  393DOPC   O3254137  11.630  11.496   2.470  0.1201  0.7409  0.3411
  393DOPC   C3254138  11.522  11.370   2.655  0.3637  0.1778 -0.3509
  393DOPC   H2X54139  11.466  11.408   2.743  0.5437  3.2016 -1.4099
  393DOPC   H2Y54140  11.466  11.281   2.621  1.0997  0.0306 -1.1946
  393DOPC   C2354141  11.099  11.126   2.467  0.1240  0.6356 -0.6185
  393DOPC   H3R54142  11.148  11.041   2.415  0.1332  0.1557  0.1585
  393DOPC   H3S54143  10.992  11.098   2.474  0.6021 -1.2848 -0.4139
  393DOPC   C2454144  11.148  11.126   2.614  0.1930  0.2515 -0.0605
  393DOPC   H4R54145  11.087  11.189   2.682  0.1654  1.0865 -0.8350
  393DOPC   H4S54146  11.256  11.153   2.619 -0.1639  1.5058  1.4549
  393DOPC   C2554147  11.145  10.983   2.680 -0.4137 -0.2352 -0.3670
  393DOPC   H5R54148  11.228  10.939   2.621 -0.0139  1.0892 -0.8410
  393DOPC   H5S54149  11.039  10.956   2.662 -1.4028  1.8630  1.6593
  393DOPC   C2654150  11.162  11.001   2.829 -0.5572 -0.0249 -0.6373
  393DOPC   H6R54151  11.166  10.901   2.878  0.9537 -0.4478 -1.5499
  393DOPC   H6S54152  11.091  11.065   2.886  1.2440 -0.2451  2.0568
  393DOPC   C2754153  11.298  11.070   2.867 -0.4907 -0.4819  0.2369
  393DOPC   H7R54154  11.312  11.171   2.823  1.2112 -1.1504 -0.8294
  393DOPC   H7S54155  11.373  10.999   2.827  1.6213  1.2797  0.8958
  393DOPC   C2854156  11.320  11.097   3.017  0.3477  0.0790  0.2144
  393DOPC   H8R54157  11.241  11.157   3.066  0.2094  0.3922 -0.3876
  393DOPC   H8S54158  11.417  11.151   3.024  0.5299 -0.3619  1.2970
  393DOPC   C2954159  11.338  10.967   3.097  0.7446 -1.5378 -0.1961
  393DOPC   H9R54160  11.344  10.877   3.034  1.2803 -1.3982 -0.3473
  393DOPC  C21054161  11.364  10.953   3.230  0.1095  0.2411  0.1173
  393DOPC  H10R54162  11.361  10.849   3.265  1.8674  0.0500 -0.2006
  393DOPC  C21154163  11.399  11.061   3.333  0.3591  0.1638 -0.7670
  393DOPC  H11R54164  11.336  11.041   3.422  0.2044 -0.3817 -0.9949
  393DOPC  H11S54165  11.377  11.164   3.298 -0.4019 -0.0843 -1.0410
  393DOPC  C21254166  11.544  11.066   3.380  0.0959 -0.4069 -0.0005
  393DOPC  H12R54167  11.602  11.067   3.286 -0.5030  4.1285 -0.5482
  393DOPC  H12S54168  11.560  10.977   3.444  0.7810  1.2027  2.1950
  393DOPC  C21354169  11.587  11.191   3.464  0.1293 -0.6830 -0.4895
  393DOPC  H13R54170  11.501  11.218   3.528  0.2141  0.8456 -0.9764
  393DOPC  H13S54171  11.603  11.276   3.394 -1.6735  1.0640  1.1010
  393DOPC  C21454172  11.707  11.165   3.560  0.2468 -0.3170  0.0018
  393DOPC  H14R54173  11.741  11.266   3.588 -1.2031 -0.2505  1.7044
  393DOPC  H14S54174  11.791  11.122   3.502  0.5435  1.0783 -0.6457
  393DOPC  C21554175  11.659  11.079   3.679 -0.6295  0.2396  0.4149
  393DOPC  H15R54176  11.607  10.989   3.638 -0.5597 -0.1248  1.1114
  393DOPC  H15S54177  11.581  11.140   3.729 -2.1775 -0.7609 -0.6793
  393DOPC  C21654178  11.781  11.021   3.748  0.1889  0.0896 -1.0441
  393DOPC  H16R54179  11.853  10.976   3.676 -0.1050 -3.4984  0.6617
  393DOPC  H16S54180  11.746  10.937   3.812 -1.3974  1.6067  0.2007
  393DOPC  C21754181  11.857  11.121   3.836 -0.4369  0.4782 -0.0426
  393DOPC  H17R54182  11.780  11.168   3.900 -0.9706  0.6418 -0.7853
  393DOPC  H17S54183  11.883  11.208   3.772  1.7963 -1.2100 -1.5825
  393DOPC  C21854184  11.971  11.062   3.919 -0.3148 -0.0748 -0.3883
  393DOPC  H18R54185  11.941  10.971   3.975  2.0616 -0.5622  0.2320
  393DOPC  H18S54186  12.021  11.138   3.984  2.1355 -2.6490  1.0031
  393DOPC  H18T54187  12.047  11.029   3.845  1.2318  0.3548  0.9411
  393DOPC   C3354188  11.664  11.340   2.710  0.1234 -0.0490  0.3257
  393DOPC   H3X54189  11.705  11.430   2.762 -0.9529 -0.2949  1.6591
  393DOPC   H3Y54190  11.730  11.292   2.635  1.1337  1.1375  0.4203
  393DOPC   C3454191  11.645  11.248   2.827  0.5191 -1.0101  0.8944
  393DOPC   H4X54192  11.582  11.166   2.787 -1.7932  1.8070 -1.6943
  393DOPC   H4Y54193  11.576  11.288   2.904 -0.9722  0.3970 -1.0924
  393DOPC   C3554194  11.770  11.200   2.885  0.0883  0.3685 -0.2883
  393DOPC   H5X54195  11.835  11.280   2.926 -1.7624  0.4689  2.7738
  393DOPC   H5Y54196  11.830  11.144   2.810  2.4680  1.7082  0.4938
  393DOPC   C3654197  11.732  11.101   2.996  0.7842  0.1639 -0.9129
  393DOPC   H6X54198  11.698  11.168   3.078 -1.8379 -1.2847 -0.7427
  393DOPC   H6Y54199  11.658  11.027   2.961  0.1368  0.5250 -0.3458
  393DOPC   C3754200  11.858  11.020   3.041 -0.1608  0.0552 -0.2882
  393DOPC   H7X54201  11.866  10.926   2.984  1.5100  0.4048 -0.6842
  393DOPC   H7Y54202  11.949  11.082   3.028 -1.8879  2.7010 -0.5533
  393DOPC   C3854203  11.856  10.980   3.186 -0.8295 -0.1831  1.0751
  393DOPC   H8X54204  11.764  10.917   3.196 -0.1594 -1.1106  1.5785
  393DOPC   H8Y54205  11.848  11.077   3.240  0.3848 -0.1641  1.2432
  393DOPC   C3954206  11.980  10.895   3.219 -0.6164  0.1547  0.0239
  393DOPC   H9X54207  11.991  10.798   3.169  4.6578  0.2295  0.4012
  393DOPC  C31054208  12.089  10.947   3.289  0.0217  0.2131  0.1256
  393DOPC  H10X54209  12.174  10.878   3.305  2.0519  2.4449 -0.3964
  393DOPC  C31154210  12.102  11.082   3.347  0.1318  0.0794 -0.1671
  393DOPC  H11X54211  12.005  11.136   3.353 -0.4264 -0.6808 -1.7530
  393DOPC  H11Y54212  12.175  11.134   3.282 -1.0986  0.4272 -1.3138
  393DOPC  C31254213  12.144  11.076   3.492 -0.0190 -0.6997 -1.0635
  393DOPC  H12X54214  12.074  11.013   3.551  2.4662 -0.8132  2.0184
  393DOPC  H12Y54215  12.138  11.179   3.534 -0.9147 -0.3464 -2.0177
  393DOPC  C31354216  12.281  11.023   3.516  0.3173  0.0468 -0.5630
  393DOPC  H13X54217  12.285  10.922   3.470 -1.4235 -0.5858  0.5559
  393DOPC  H13Y54218  12.363  11.081   3.467  0.0418  1.2529  0.3499
  393DOPC  C31454219  12.314  11.008   3.666 -0.3635  0.1035  0.6965
  393DOPC  H14X54220  12.296  11.102   3.721  2.7345  0.6145  1.0060
  393DOPC  H14Y54221  12.252  10.928   3.711 -1.8710  1.0908  0.4477
  393DOPC  C31554222  12.457  10.961   3.692  0.1553  0.3427 -0.5925
  393DOPC  H15X54223  12.483  10.868   3.638 -0.6231 -0.8748  1.0237
  393DOPC  H15Y54224  12.450  10.926   3.798  0.2902 -0.1314 -0.7402
  393DOPC  C31654225  12.572  11.066   3.685 -0.3773 -0.1427 -0.2633
  393DOPC  H16X54226  12.672  11.019   3.694  0.1085  0.2228 -2.9377
  393DOPC  H16Y54227  12.565  11.104   3.581 -1.7050 -0.5607 -0.3520
  393DOPC  C31754228  12.559  11.176   3.779  0.1211 -0.2626 -0.2545
  393DOPC  H17X54229  12.487  11.250   3.738  2.5864  1.5579 -1.5702
  393DOPC  H17Y54230  12.526  11.133   3.876  1.3970 -0.9129 -0.0820
  393DOPC  C31854231  12.691  11.248   3.809  0.4266  0.4300 -0.0313
  393DOPC  H18X54232  12.755  11.197   3.884 -1.3395 -1.1622  0.4731
  393DOPC  H18Y54233  12.752  11.251   3.717  0.3391  0.2770 -0.0952
  393DOPC  H18Z54234  12.676  11.354   3.838 -1.4706 -0.1376  1.2995
  394DOPC     N54235   4.813   8.307   2.131  0.3706  0.1505 -0.1010
  394DOPC   C1254236   4.694   8.211   2.158  0.1447  0.4981  0.4000
  394DOPC  H12A54237   4.726   8.140   2.233 -0.6420  0.7770  1.0058
  394DOPC  H12B54238   4.684   8.156   2.065  3.1515 -0.4708  0.5588
  394DOPC   C1354239   4.940   8.235   2.144 -0.9400  0.2947  0.3214
  394DOPC  H13A54240   5.027   8.296   2.126 -1.1326  0.7672  0.9344
  394DOPC  H13B54241   4.948   8.187   2.241  3.0423  0.8489  0.4067
  394DOPC  H13C54242   4.936   8.147   2.081  0.0819  1.0218 -0.7732
  394DOPC   C1454243   4.809   8.422   2.226 -0.7599  0.0350 -0.0963
  394DOPC  H14A54244   4.725   8.490   2.220 -1.0614 -0.3211 -0.0085
  394DOPC  H14B54245   4.815   8.384   2.327 -1.3903 -0.9550 -0.4138
  394DOPC  H14C54246   4.902   8.476   2.215 -0.2025  0.0031  3.3721
  394DOPC   C1554247   4.802   8.360   1.993  0.5703  0.1192  0.4711
  394DOPC  H15A54248   4.793   8.278   1.924 -0.0182 -0.6531  1.4470
  394DOPC  H15B54249   4.887   8.418   1.958  1.7287 -1.3881  0.7068
  394DOPC  H15C54250   4.715   8.424   1.988 -0.1917 -0.8191  1.2931
  394DOPC   C1154251   4.556   8.258   2.203  0.1704 -0.5192  0.0504
  394DOPC  H11A54252   4.498   8.164   2.213  3.8500 -3.2517 -1.6395
  394DOPC  H11B54253   4.561   8.312   2.300  2.0791  0.3047 -0.4621
  394DOPC     P54254   4.359   8.358   2.055 -0.1159 -0.0497  0.1401
  394DOPC   O1354255   4.323   8.231   1.984 -0.3888  0.2634  0.5496
  394DOPC   O1454256   4.363   8.475   1.962  0.3816  0.0153 -0.3645
  394DOPC   O1254257   4.508   8.345   2.103  0.2983  0.0637 -0.3667
  394DOPC   O1154258   4.266   8.362   2.182 -0.7153  0.6740  0.0766
  394DOPC    C154259   4.239   8.488   2.250 -0.3760  0.2346  1.2493
  394DOPC    HA54260   4.139   8.481   2.297 -0.7490  2.8919  1.0059
  394DOPC    HB54261   4.218   8.568   2.175 -1.0295 -1.9367 -1.0253
  394DOPC    C254262   4.345   8.520   2.357  0.3078 -0.2645 -0.6856
  394DOPC    HS54263   4.443   8.518   2.304  0.2878  0.4178 -0.7574
  394DOPC   O2154264   4.349   8.439   2.478 -0.1183 -0.3607 -0.5035
  394DOPC   C2154265   4.231   8.446   2.556  0.1860  0.7512 -0.2920
  394DOPC   O2254266   4.134   8.513   2.526 -0.1127 -0.3777  0.0984
  394DOPC   C2254267   4.239   8.343   2.670 -0.4211 -0.0214 -0.0649
  394DOPC   H2R54268   4.347   8.327   2.688 -0.5778 -0.6213  0.3600
  394DOPC   H2S54269   4.181   8.254   2.638 -2.4803  0.8195  1.0760
  394DOPC    C354270   4.331   8.674   2.399 -0.3187 -0.0400  0.1921
  394DOPC    HX54271   4.227   8.707   2.422 -0.0658 -0.3869  1.9785
  394DOPC    HY54272   4.361   8.743   2.317 -2.9238  1.3810  0.3304
  394DOPC   O3154273   4.410   8.705   2.520 -0.3026  0.1718 -0.0164
  394DOPC   C3154274   4.537   8.740   2.505  0.0736 -0.3627 -0.4865
  394DOPC   O3254275   4.593   8.760   2.398  0.4858  0.5851 -0.2726
  394DOPC   C3254276   4.590   8.769   2.640  0.3624 -0.0678  0.4529
  394DOPC   H2X54277   4.698   8.740   2.634  0.4988  0.0288  2.0613
  394DOPC   H2Y54278   4.584   8.878   2.656 -1.1047 -0.0361 -0.2269
  394DOPC   C2354279   4.163   8.398   2.797  0.1967  0.1535 -0.1679
  394DOPC   H3R54280   4.057   8.418   2.772  0.0057 -1.0309 -0.3702
  394DOPC   H3S54281   4.215   8.489   2.834  0.0574 -0.1909  0.8951
  394DOPC   C2454282   4.178   8.316   2.924 -0.1014  0.2340 -0.4052
  394DOPC   H4R54283   4.284   8.284   2.931 -0.2945 -0.1700  0.8765
  394DOPC   H4S54284   4.111   8.227   2.917  0.2801 -0.1207  0.3780
  394DOPC   C2554285   4.154   8.396   3.049  0.1777  0.4494  0.5763
  394DOPC   H5R54286   4.045   8.420   3.044 -0.4208 -1.4539  2.6440
  394DOPC   H5S54287   4.210   8.491   3.043  1.0604 -0.1573 -1.7384
  394DOPC   C2654288   4.176   8.323   3.179  0.1650  0.1291 -0.6504
  394DOPC   H6R54289   4.278   8.281   3.195  0.6836  1.3783 -0.6279
  394DOPC   H6S54290   4.102   8.240   3.177 -0.5930  0.6782  1.6941
  394DOPC   C2754291   4.149   8.404   3.311 -0.0978 -0.1555  0.1896
  394DOPC   H7R54292   4.214   8.493   3.300 -0.1108 -0.3375 -1.7332
  394DOPC   H7S54293   4.185   8.344   3.397  0.0282  0.5378  0.6238
  394DOPC   C2854294   3.998   8.440   3.335  0.6092 -0.2526  0.2549
  394DOPC   H8R54295   3.933   8.350   3.331  0.4343 -0.1408  0.6055
  394DOPC   H8S54296   3.970   8.509   3.252 -0.0731 -0.6016  0.1906
  394DOPC   C2954297   3.992   8.519   3.468 -0.5634 -0.9348 -0.4760
  394DOPC   H9R54298   4.063   8.602   3.473 -2.0269  0.4686 -1.8607
  394DOPC  C21054299   3.907   8.516   3.572  0.5591  0.2656  0.1995
  394DOPC  H10R54300   3.929   8.591   3.649 -0.7861  0.5252  0.3545
  394DOPC  C21154301   3.781   8.430   3.609  0.0439  0.4310 -0.3790
  394DOPC  H11R54302   3.746   8.359   3.531  0.4937 -0.3878  0.1588
  394DOPC  H11S54303   3.697   8.502   3.619  0.4454  1.3245 -2.7815
  394DOPC  C21254304   3.789   8.352   3.745  0.7363  0.0276  0.5788
  394DOPC  H12R54305   3.692   8.305   3.772  0.8884 -0.2450  0.6498
  394DOPC  H12S54306   3.803   8.436   3.817  1.9402  0.4754 -0.1369
  394DOPC  C21354307   3.896   8.250   3.763 -0.1529  0.0214  0.5596
  394DOPC  H13R54308   3.912   8.198   3.666 -2.1223  1.3788 -0.5919
  394DOPC  H13S54309   3.861   8.177   3.838  1.2433 -0.8306  0.4133
  394DOPC  C21454310   4.026   8.308   3.817  0.8780  0.4241  0.9585
  394DOPC  H14R54311   3.995   8.374   3.901 -2.8027  1.0660 -0.7197
  394DOPC  H14S54312   4.069   8.369   3.735 -2.3137 -0.1703 -1.3205
  394DOPC  C21554313   4.135   8.200   3.849  0.0115  0.5193 -0.6169
  394DOPC  H15R54314   4.228   8.250   3.816 -0.3667 -0.2025 -2.9734
  394DOPC  H15S54315   4.110   8.112   3.786  1.9357 -1.6822  1.5134
  394DOPC  C21654316   4.137   8.157   3.993  0.1470 -0.1320  0.0310
  394DOPC  H16R54317   4.032   8.149   4.029 -0.4583 -0.5585 -1.7349
  394DOPC  H16S54318   4.205   8.225   4.049 -0.8226  2.7318 -2.0234
  394DOPC  C21754319   4.195   8.013   3.999 -0.1266 -0.3459  0.4850
  394DOPC  H17R54320   4.195   7.975   4.104  1.3628 -0.7057  0.3762
  394DOPC  H17S54321   4.299   8.019   3.960 -0.6729  2.2716 -0.7566
  394DOPC  C21854322   4.114   7.915   3.916  0.9360  0.6056  0.7261
  394DOPC  H18R54323   4.110   7.819   3.972  1.1536 -0.5670 -1.1898
  394DOPC  H18S54324   4.169   7.900   3.821 -0.0895 -0.5222  0.2920
  394DOPC  H18T54325   4.008   7.945   3.904  0.7329 -0.5997 -0.8109
  394DOPC   C3354326   4.540   8.684   2.763  0.7066  0.7667 -0.3347
  394DOPC   H3X54327   4.541   8.576   2.741 -0.7658  0.7980 -0.6889
  394DOPC   H3Y54328   4.431   8.705   2.775 -0.1489 -3.6748  1.4454
  394DOPC   C3454329   4.609   8.725   2.893  0.3057 -0.9461 -0.1393
  394DOPC   H4X54330   4.598   8.836   2.888 -0.2921 -0.9464  0.9151
  394DOPC   H4Y54331   4.716   8.711   2.868 -0.0377 -1.0069 -1.6228
  394DOPC   C3554332   4.578   8.649   3.018  0.4910 -0.2051  0.2579
  394DOPC   H5X54333   4.614   8.545   2.998 -1.4828 -1.3818  2.3116
  394DOPC   H5Y54334   4.471   8.657   3.046  0.5493  4.2069 -0.1555
  394DOPC   C3654335   4.664   8.701   3.132 -0.4386  1.1225  0.3427
  394DOPC   H6X54336   4.762   8.744   3.103 -0.7143  1.3473 -0.2731
  394DOPC   H6Y54337   4.614   8.782   3.190 -0.9662  0.5927  0.6528
  394DOPC   C3754338   4.678   8.603   3.244  0.2021  0.3800 -0.3111
  394DOPC   H7X54339   4.577   8.566   3.271  0.5960 -0.5225 -0.0542
  394DOPC   H7Y54340   4.743   8.517   3.216  0.6431  0.9905 -1.2235
  394DOPC   C3854341   4.719   8.653   3.381 -0.4705 -0.1639  0.7389
  394DOPC   H8X54342   4.729   8.563   3.445 -3.0022 -0.4466  0.8293
  394DOPC   H8Y54343   4.636   8.715   3.420 -2.4417 -2.1409 -0.0934
  394DOPC   C3954344   4.859   8.718   3.381  0.3756 -0.1338 -0.5914
  394DOPC   H9X54345   4.908   8.727   3.283  1.9651  4.1232  0.3784
  394DOPC  C31054346   4.909   8.801   3.479  0.2459 -0.5190 -0.3464
  394DOPC  H10X54347   5.013   8.837   3.476  0.1479 -0.1427  0.5848
  394DOPC  C31154348   4.843   8.827   3.610  0.0970 -0.0560  0.6151
  394DOPC  H11X54349   4.739   8.787   3.613  0.1516 -0.1463  1.8388
  394DOPC  H11Y54350   4.834   8.937   3.624 -0.1715  0.3124 -1.9364
  394DOPC  C31254351   4.904   8.754   3.726  0.0916 -0.2484  0.5452
  394DOPC  H12X54352   4.847   8.788   3.815 -2.7995  1.5834 -1.8438
  394DOPC  H12Y54353   5.013   8.778   3.726  0.1261 -0.3920  0.0685
  394DOPC  C31354354   4.891   8.604   3.728  0.9694 -0.2752  0.7241
  394DOPC  H13X54355   4.784   8.574   3.726  1.5615 -2.5573 -0.9763
  394DOPC  H13Y54356   4.934   8.563   3.634 -0.2689  2.1501 -1.0256
  394DOPC  C31454357   4.940   8.532   3.853  0.0048  0.6064 -0.5972
  394DOPC  H14X54358   4.907   8.586   3.944 -0.3941 -1.1634  0.3601
  394DOPC  H14Y54359   4.894   8.432   3.864  0.0780  0.7023  0.7316
  394DOPC  C31554360   5.096   8.505   3.841 -0.3268 -0.0274  0.1649
  394DOPC  H15X54361   5.154   8.595   3.867 -0.5191  0.7163 -1.8448
  394DOPC  H15Y54362   5.110   8.469   3.737 -1.7781  0.8426 -0.3647
  394DOPC  C31654363   5.138   8.384   3.926 -0.6472  0.1213  0.0776
  394DOPC  H16X54364   5.095   8.404   4.027  0.3628  0.0772  0.5283
  394DOPC  H16Y54365   5.093   8.287   3.894 -0.7382 -0.3560  1.5760
  394DOPC  C31754366   5.294   8.370   3.932 -0.0220 -0.5313  0.2057
  394DOPC  H17X54367   5.330   8.336   3.833 -1.6547 -2.2900  0.1626
  394DOPC  H17Y54368   5.348   8.462   3.961 -0.3279  0.0325 -0.9726
  394DOPC  C31854369   5.343   8.259   4.028  0.1943  0.0400 -0.6161
  394DOPC  H18X54370   5.315   8.291   4.130 -1.3834 -0.5038 -0.8491
  394DOPC  H18Y54371   5.304   8.158   4.003 -1.8688  0.4608  0.6728
  394DOPC  H18Z54372   5.454   8.257   4.026  0.2545 -1.4527  1.7045
  395DOPC     N54373  11.572   9.775   1.259  0.2973  0.2454  0.3102
  395DOPC   C1254374  11.564   9.740   1.405 -0.2273 -0.1200  0.3417
  395DOPC  H12A54375  11.561   9.827   1.469 -0.4155 -0.2880  0.5584
  395DOPC  H12B54376  11.660   9.694   1.424 -0.7995 -2.1740 -1.4017
  395DOPC   C1354377  11.713   9.822   1.244  0.4357  0.8107 -0.6484
  395DOPC  H13A54378  11.733   9.827   1.138  1.5570  0.2535 -0.4843
  395DOPC  H13B54379  11.725   9.918   1.292 -0.7675 -0.1053  1.6495
  395DOPC  H13C54380  11.775   9.744   1.285  0.8078  0.9106 -1.0126
  395DOPC   C1454381  11.484   9.891   1.229  0.4924  0.1822 -0.4063
  395DOPC  H14A54382  11.480   9.926   1.127  0.2961  0.0151 -0.4566
  395DOPC  H14B54383  11.382   9.863   1.251  0.5220  0.8019  0.5653
  395DOPC  H14C54384  11.499   9.975   1.295 -0.4171  0.1154 -0.0972
  395DOPC   C1554385  11.548   9.658   1.174 -0.4272  0.6956 -0.0451
  395DOPC  H15A54386  11.450   9.618   1.196 -0.1106  0.4454  0.9519
  395DOPC  H15B54387  11.612   9.576   1.204 -0.2473  1.6823  2.4197
  395DOPC  H15C54388  11.558   9.683   1.069 -1.8054  0.7308 -0.1857
  395DOPC   C1154389  11.451   9.642   1.449 -0.0263  0.0469  0.2545
  395DOPC  H11A54390  11.357   9.700   1.435 -0.6854 -0.9449  0.4546
  395DOPC  H11B54391  11.447   9.559   1.376 -0.2234 -0.9450  1.3676
  395DOPC     P54392  11.523   9.687   1.692  0.2709 -0.2049 -0.3972
  395DOPC   O1354393  11.427   9.799   1.705  0.4347  0.2267  0.2757
  395DOPC   O1454394  11.668   9.714   1.663  0.2218 -0.2601  0.1768
  395DOPC   O1254395  11.474   9.585   1.583 -0.7425 -0.9995  0.0148
  395DOPC   O1154396  11.511   9.599   1.814 -0.1516 -0.2872 -0.2800
  395DOPC    C154397  11.521   9.452   1.804 -0.5075 -0.1672 -0.3820
  395DOPC    HA54398  11.596   9.420   1.729 -1.4375  0.4198 -1.5979
  395DOPC    HB54399  11.421   9.404   1.789 -0.6563  0.1290 -0.3474
  395DOPC    C254400  11.564   9.397   1.944  0.5958  0.4952 -0.2659
  395DOPC    HS54401  11.583   9.287   1.949  0.0544  0.4521  2.6608
  395DOPC   O2154402  11.477   9.450   2.050 -0.5650  0.5148  0.2316
  395DOPC   C2154403  11.394   9.357   2.093  0.2742 -0.0367  0.2171
  395DOPC   O2254404  11.393   9.242   2.057 -0.0206 -0.5597  0.0173
  395DOPC   C2254405  11.304   9.413   2.199 -0.0492 -0.0310 -0.1594
  395DOPC   H2R54406  11.201   9.391   2.162 -0.0664 -2.8782  1.2990
  395DOPC   H2S54407  11.314   9.522   2.183  1.6820 -0.5210 -2.9477
  395DOPC    C354408  11.706   9.448   1.972 -0.2754 -0.0748  0.0726
  395DOPC    HX54409  11.700   9.558   1.959 -0.4415  0.1238  1.6759
  395DOPC    HY54410  11.771   9.408   1.891 -0.3592  0.0013 -0.0324
  395DOPC   O3154411  11.745   9.409   2.102 -0.8683 -0.0341 -0.4783
  395DOPC   C3154412  11.779   9.504   2.185 -0.1366 -0.7320 -0.3441
  395DOPC   O3254413  11.781   9.624   2.150  0.5347 -0.2134  0.2368
  395DOPC   C3254414  11.814   9.446   2.319  0.0894  0.0587  0.4289
  395DOPC   H2X54415  11.719   9.400   2.355  0.8950 -1.6777  0.4569
  395DOPC   H2Y54416  11.894   9.372   2.297  3.3522  3.3337  0.4768
  395DOPC   C2354417  11.313   9.354   2.338  0.5076 -0.1731 -0.4487
  395DOPC   H3R54418  11.403   9.382   2.398 -0.9325  0.0986  1.7157
  395DOPC   H3S54419  11.310   9.243   2.331 -1.5559 -0.0268 -4.1928
  395DOPC   C2454420  11.187   9.378   2.429 -0.0401 -0.1988  0.4423
  395DOPC   H4R54421  11.104   9.344   2.363  0.8472  0.5279 -1.0925
  395DOPC   H4S54422  11.164   9.485   2.449 -2.8145 -0.3266 -1.4848
  395DOPC   C2554423  11.187   9.294   2.559  0.4993  0.3792 -0.3182
  395DOPC   H5R54424  11.209   9.187   2.539 -1.7561 -0.1309 -0.2883
  395DOPC   H5S54425  11.082   9.302   2.595  0.7168  1.7063  0.0723
  395DOPC   C2654426  11.277   9.343   2.672 -0.5192 -0.7156 -0.1531
  395DOPC   H6R54427  11.259   9.451   2.690  1.0592  0.0249 -2.4845
  395DOPC   H6S54428  11.386   9.331   2.653 -0.3531 -3.4705  1.8357
  395DOPC   C2754429  11.260   9.267   2.804  0.1181 -0.2975  0.1741
  395DOPC   H7R54430  11.301   9.164   2.796  0.9822  0.0074  0.5372
  395DOPC   H7S54431  11.155   9.266   2.840  0.4452  0.5163  1.2087
  395DOPC   C2854432  11.344   9.322   2.922 -0.1848 -0.4842 -0.7948
  395DOPC   H8R54433  11.315   9.427   2.945  1.1046 -0.3344  0.2890
  395DOPC   H8S54434  11.449   9.345   2.893 -1.2093  1.6089 -3.2227
  395DOPC   C2954435  11.345   9.226   3.039 -0.5173 -0.3292 -0.0913
  395DOPC   H9R54436  11.408   9.138   3.023 -0.6661 -0.2318 -1.2918
  395DOPC  C21054437  11.278   9.242   3.155  0.0941  1.3351  0.3827
  395DOPC  H10R54438  11.289   9.158   3.225  0.6185  2.1145  1.2484
  395DOPC  C21154439  11.216   9.374   3.198  0.6573  0.0888 -0.5890
  395DOPC  H11R54440  11.112   9.385   3.161  0.0558  0.8518  1.1719
  395DOPC  H11S54441  11.286   9.456   3.169 -0.4140  0.7848 -1.2874
  395DOPC  C21254442  11.201   9.378   3.356 -0.0421 -0.2168 -0.4661
  395DOPC  H12R54443  11.291   9.424   3.403  0.1427  0.7935 -1.7403
  395DOPC  H12S54444  11.191   9.275   3.396  0.7624 -0.1406 -0.0557
  395DOPC  C21354445  11.102   9.482   3.402 -0.5983 -0.0325 -0.1932
  395DOPC  H13R54446  11.001   9.447   3.372 -1.0904  1.3277 -0.1745
  395DOPC  H13S54447  11.105   9.576   3.343 -1.0029 -0.5516 -1.0622
  395DOPC  C21454448  11.127   9.512   3.552  0.5548  0.0602  0.3263
  395DOPC  H14R54449  11.062   9.601   3.570  1.1471  0.5161  0.2490
  395DOPC  H14S54450  11.229   9.555   3.562 -0.1721  1.9154  0.1177
  395DOPC  C21554451  11.094   9.407   3.654  0.6306  0.1325  0.5590
  395DOPC  H15R54452  11.151   9.319   3.618 -1.9203 -0.8785 -1.2810
  395DOPC  H15S54453  10.989   9.380   3.632  1.7053 -3.2779 -1.0266
  395DOPC  C21654454  11.106   9.440   3.802 -0.5676 -0.5927 -0.5521
  395DOPC  H16R54455  11.051   9.532   3.832 -0.0471  0.1390 -1.7450
  395DOPC  H16S54456  11.212   9.468   3.823 -0.8452  0.1236 -0.0616
  395DOPC  C21754457  11.063   9.330   3.898 -0.4750 -0.8228  0.1207
  395DOPC  H17R54458  11.115   9.234   3.881 -2.8411 -2.2174  0.3639
  395DOPC  H17S54459  10.955   9.318   3.875 -0.5307 -0.3995  0.1425
  395DOPC  C21854460  11.061   9.369   4.044 -0.2106  1.2534 -0.1937
  395DOPC  H18R54461  10.962   9.410   4.074 -0.2196  0.9454  0.2085
  395DOPC  H18S54462  11.141   9.445   4.058  2.6785 -1.5302 -0.4218
  395DOPC  H18T54463  11.083   9.277   4.103 -1.8116  0.4146 -0.8260
  395DOPC   C3354464  11.869   9.548   2.419 -0.4399 -0.0823  0.0359
  395DOPC   H3X54465  11.815   9.645   2.430 -1.9249 -0.9279  0.4281
  395DOPC   H3Y54466  11.974   9.577   2.395  1.1707 -2.8650  2.8669
  395DOPC   C3454467  11.874   9.492   2.563  0.0273 -0.0524  0.3498
  395DOPC   H4X54468  11.931   9.397   2.552 -1.3262 -0.6233 -3.0593
  395DOPC   H4Y54469  11.771   9.473   2.599  0.6121 -1.6800  1.2665
  395DOPC   C3554470  11.946   9.582   2.659  0.0892  0.4189 -0.3903
  395DOPC   H5X54471  11.881   9.671   2.675 -1.7925 -1.0684  0.6269
  395DOPC   H5Y54472  12.047   9.602   2.618  0.2819 -0.0637 -0.1562
  395DOPC   C3654473  11.961   9.520   2.798  0.5578  0.6608 -0.2429
  395DOPC   H6X54474  11.863   9.513   2.849  1.6388 -1.4128  1.7466
  395DOPC   H6Y54475  11.989   9.413   2.789  2.0865  1.0754 -0.7616
  395DOPC   C3754476  12.051   9.595   2.894  0.3291 -0.0705  0.2948
  395DOPC   H7X54477  12.149   9.600   2.842  0.7733  0.5113  1.1465
  395DOPC   H7Y54478  12.011   9.697   2.911  2.1893  0.9537 -1.0825
  395DOPC   C3854479  12.080   9.519   3.026  0.2348 -0.4534  0.1964
  395DOPC   H8X54480  12.104   9.414   2.996  1.1720 -0.8664  2.1948
  395DOPC   H8Y54481  11.991   9.493   3.088  1.6768 -1.8990  1.7594
  395DOPC   C3954482  12.193   9.577   3.109  0.1780 -0.8339 -0.2764
  395DOPC   H9X54483  12.292   9.585   3.062  0.6509  0.3897  0.8461
  395DOPC  C31054484  12.183   9.626   3.238 -0.9231  0.0108 -0.6371
  395DOPC  H10X54485  12.266   9.676   3.290  1.0388 -1.5734 -2.0761
  395DOPC  C31154486  12.063   9.626   3.322 -0.0024 -0.0038 -0.7689
  395DOPC  H11X54487  12.081   9.559   3.409 -0.6498 -0.5659 -1.0520
  395DOPC  H11Y54488  11.979   9.575   3.269 -1.2446 -0.4160  1.4458
  395DOPC  C31254489  12.003   9.763   3.352  0.2202  0.5413  0.1981
  395DOPC  H12X54490  11.964   9.803   3.256 -1.9311 -0.0163  0.7782
  395DOPC  H12Y54491  12.076   9.831   3.400 -1.7249  1.0490  2.6649
  395DOPC  C31354492  11.887   9.753   3.448 -0.1950 -0.3237 -0.3537
  395DOPC  H13X54493  11.845   9.855   3.451  1.6341  0.5069 -1.2337
  395DOPC  H13Y54494  11.799   9.694   3.416  1.1223 -2.5148 -0.2173
  395DOPC  C31454495  11.921   9.727   3.586  0.1529 -0.4972  0.4206
  395DOPC  H14X54496  11.987   9.638   3.592 -2.0436 -2.1937  0.5299
  395DOPC  H14Y54497  11.970   9.817   3.630  1.6506 -1.5290  0.9385
  395DOPC  C31554498  11.798   9.693   3.672  0.3738  0.3895  0.4276
  395DOPC  H15X54499  11.830   9.677   3.777  0.2612  0.8392  0.5316
  395DOPC  H15Y54500  11.770   9.589   3.644  0.7742  0.2694  0.4756
  395DOPC  C31654501  11.681   9.786   3.679  0.0539 -0.4575  0.0418
  395DOPC  H16X54502  11.650   9.829   3.581  2.1206  0.1160 -0.4008
  395DOPC  H16Y54503  11.591   9.731   3.715 -0.1059  0.5481  1.2440
  395DOPC  C31754504  11.707   9.902   3.777  0.1167 -0.2478  0.4521
  395DOPC  H17X54505  11.781   9.974   3.736 -1.2900  1.8359  1.3695
  395DOPC  H17Y54506  11.609   9.954   3.770  1.4570  2.5683  0.9813
  395DOPC  C31854507  11.730   9.867   3.927 -0.3914 -0.3753 -0.0682
  395DOPC  H18X54508  11.828   9.815   3.933  0.2823  0.6112 -1.7562
  395DOPC  H18Y54509  11.735   9.961   3.985  0.5787 -0.9537  0.8075
  395DOPC  H18Z54510  11.636   9.820   3.963 -0.8506  0.8486  0.3871
  396DOPC     N54511   4.022   9.697   1.618 -0.3045 -0.0140  0.1724
  396DOPC   C1254512   4.075   9.617   1.734 -0.0778  0.0367  0.3974
  396DOPC  H12A54513   4.085   9.513   1.708  2.2722 -0.1633  1.7491
  396DOPC  H12B54514   4.011   9.618   1.820  1.1237  0.2290  1.3081
  396DOPC   C1354515   3.889   9.648   1.570 -0.5680 -0.1996  0.5465
  396DOPC  H13A54516   3.836   9.629   1.662  0.4895  3.1987  2.0283
  396DOPC  H13B54517   3.826   9.710   1.508  2.8564  2.0009 -1.0664
  396DOPC  H13C54518   3.903   9.551   1.526 -1.4803  0.1024 -0.4459
  396DOPC   C1454519   4.117   9.698   1.503  0.2397  0.0566 -0.3211
  396DOPC  H14A54520   4.116   9.599   1.460 -0.5994 -0.0761 -0.0118
  396DOPC  H14B54521   4.088   9.774   1.431  0.5490  1.3802  0.8931
  396DOPC  H14C54522   4.219   9.726   1.528  0.8793 -1.0286 -1.5646
  396DOPC   C1554523   3.997   9.837   1.665  0.0785 -0.1636 -0.3881
  396DOPC  H15A54524   3.909   9.824   1.727 -1.3552 -2.4253 -2.6941
  396DOPC  H15B54525   3.974   9.918   1.598  0.7069  0.9232  0.6719
  396DOPC  H15C54526   4.076   9.880   1.724 -1.9508 -0.4623  2.8286
  396DOPC   C1154527   4.208   9.666   1.793  1.2454 -0.0846 -0.8768
  396DOPC  H11A54528   4.241   9.580   1.854  0.7221 -0.6862 -1.4277
  396DOPC  H11B54529   4.279   9.692   1.712  0.7406  0.1407 -1.2586
  396DOPC     P54530   4.250   9.808   2.016  0.2622  0.3028  0.1584
  396DOPC   O1354531   4.266   9.952   2.058 -0.0914 -0.2849  0.2407
  396DOPC   O1454532   4.373   9.731   2.025  0.3386 -0.1839  0.0514
  396DOPC   O1254533   4.190   9.785   1.867  1.1225 -0.3474  0.0144
  396DOPC   O1154534   4.141   9.736   2.098 -0.3317  0.1410 -0.4203
  396DOPC    C154535   4.017   9.795   2.126  0.1805  0.1794  0.0876
  396DOPC    HA54536   3.944   9.715   2.152  1.9870 -1.9625 -1.0184
  396DOPC    HB54537   3.970   9.843   2.038 -0.6264  0.7922  0.8408
  396DOPC    C254538   4.014   9.891   2.244 -0.2061  0.4210 -0.1793
  396DOPC    HS54539   4.101   9.960   2.240 -0.4680  0.9238  1.8988
  396DOPC   O2154540   4.013   9.810   2.368 -0.6627 -0.9915  0.1190
  396DOPC   C2154541   4.123   9.833   2.454  0.3403  0.1477  0.1346
  396DOPC   O2254542   4.200   9.923   2.443 -0.6019 -0.0421  0.0469
  396DOPC   C2254543   4.128   9.723   2.558 -0.4614  0.4701 -0.2559
  396DOPC   H2R54544   4.137   9.622   2.513 -0.4534  0.0355  0.7000
  396DOPC   H2S54545   4.038   9.726   2.623  0.1481 -0.9270  0.6850
  396DOPC    C354546   3.890   9.984   2.241 -0.1392  0.2962 -0.4223
  396DOPC    HX54547   3.801   9.918   2.254  0.8199 -0.8088  0.7826
  396DOPC    HY54548   3.873  10.041   2.147  0.2513  0.6283 -0.2902
  396DOPC   O3154549   3.895  10.061   2.355  0.2130  0.1890  0.1320
  396DOPC   C3154550   3.970  10.170   2.353  0.3608 -0.4322 -0.7840
  396DOPC   O3254551   4.021  10.212   2.251 -0.1995  0.4931 -0.1841
  396DOPC   C3254552   3.982  10.231   2.502 -0.5598  0.3927 -0.2352
  396DOPC   H2X54553   3.916  10.202   2.586  0.5751  0.7336  0.8212
  396DOPC   H2Y54554   4.084  10.198   2.532 -1.0269 -0.6654  0.2491
  396DOPC   C2354555   4.256   9.744   2.635  0.0142 -0.4813  0.0021
  396DOPC   H3R54556   4.266   9.848   2.672 -1.1374  0.1806 -1.4526
  396DOPC   H3S54557   4.336   9.715   2.563 -0.3386 -1.4047 -0.0384
  396DOPC   C2454558   4.258   9.645   2.757  0.1225  0.1640  0.3588
  396DOPC   H4R54559   4.251   9.539   2.726  2.6548  0.0617 -0.0788
  396DOPC   H4S54560   4.171   9.680   2.817  0.8542  4.0656 -0.5573
  396DOPC   C2554561   4.381   9.665   2.849  0.2246 -0.0138  0.7000
  396DOPC   H5R54562   4.431   9.762   2.826 -1.1115  0.7594  0.9738
  396DOPC   H5S54563   4.461   9.594   2.817 -0.3369 -0.0121 -0.7885
  396DOPC   C2654564   4.366   9.645   2.990 -0.0044  0.1456 -0.2248
  396DOPC   H6R54565   4.333   9.540   3.005 -0.7670  0.4448  0.2663
  396DOPC   H6S54566   4.294   9.713   3.041  0.5100 -0.6908  1.6738
  396DOPC   C2754567   4.489   9.655   3.076  0.4473  0.0330 -0.3881
  396DOPC   H7R54568   4.531   9.757   3.086  3.1702 -0.6791 -3.0221
  396DOPC   H7S54569   4.574   9.596   3.035  2.2976  1.5058  1.1430
  396DOPC   C2854570   4.462   9.596   3.216  0.4380  0.0112 -0.6986
  396DOPC   H8R54571   4.420   9.494   3.217  0.3641  0.0423 -0.2747
  396DOPC   H8S54572   4.384   9.664   3.256 -1.5428 -0.7069 -3.1012
  396DOPC   C2954573   4.577   9.595   3.308 -0.2890  0.2269  0.4637
  396DOPC   H9R54574   4.665   9.621   3.247 -1.2671  1.9018 -0.2927
  396DOPC  C21054575   4.584   9.572   3.440 -0.7698  0.0859  0.2053
  396DOPC  H10R54576   4.685   9.565   3.483 -0.8476 -0.7148  0.2814
  396DOPC  C21154577   4.475   9.530   3.536 -0.0629 -0.0789  0.4722
  396DOPC  H11R54578   4.475   9.423   3.565 -2.8432 -0.6276 -1.1385
  396DOPC  H11S54579   4.380   9.544   3.479  0.1576  0.9579  0.3310
  396DOPC  C21254580   4.449   9.639   3.645 -0.3464 -0.1099 -0.1097
  396DOPC  H12R54581   4.487   9.737   3.608  0.6106  0.7684  2.9260
  396DOPC  H12S54582   4.518   9.631   3.732 -1.1568 -2.0298  0.4001
  396DOPC  C21354583   4.315   9.644   3.718 -0.4837 -0.1302 -0.0414
  396DOPC  H13R54584   4.235   9.646   3.641  1.5684  1.2573 -2.2610
  396DOPC  H13S54585   4.307   9.716   3.802 -1.8110  0.1466 -0.3905
  396DOPC  C21454586   4.292   9.510   3.805 -0.3424 -0.2327 -0.7763
  396DOPC  H14R54587   4.368   9.510   3.886 -1.1679  0.2783  0.0140
  396DOPC  H14S54588   4.321   9.429   3.735  1.3624  1.4728 -2.1361
  396DOPC  C21554589   4.156   9.506   3.867 -0.1431 -0.9460  0.7498
  396DOPC  H15R54590   4.075   9.514   3.791  2.6086 -1.2851 -2.4130
  396DOPC  H15S54591   4.146   9.596   3.932 -2.6436 -1.3211  1.0032
  396DOPC  C21654592   4.141   9.388   3.964  0.4299  0.4227 -0.9422
  396DOPC  H16R54593   4.140   9.294   3.904 -2.2872 -0.5180  0.3957
  396DOPC  H16S54594   4.043   9.388   4.016  2.0276 -0.9539  2.3377
  396DOPC  C21754595   4.230   9.390   4.093 -0.3469  0.1702 -0.4697
  396DOPC  H17R54596   4.214   9.490   4.139 -0.1770  0.5981 -1.3193
  396DOPC  H17S54597   4.337   9.387   4.065  0.0805  2.6751  0.5754
  396DOPC  C21854598   4.190   9.285   4.199 -0.6721 -0.0492 -0.1896
  396DOPC  H18R54599   4.237   9.315   4.295  0.3873 -0.1843 -0.6515
  396DOPC  H18S54600   4.216   9.180   4.175  1.1722  0.1540  0.7592
  396DOPC  H18T54601   4.079   9.289   4.208 -0.5672  0.1868  1.2389
  396DOPC   C3354602   3.971  10.388   2.515  0.0438  0.6494  0.0916
  396DOPC   H3X54603   3.862  10.408   2.527 -0.0593  0.2031 -0.0444
  396DOPC   H3Y54604   4.019  10.444   2.432  0.6888  0.4714  0.3457
  396DOPC   C3454605   4.038  10.437   2.643 -0.0840  0.1864  0.5837
  396DOPC   H4X54606   4.139  10.467   2.607 -0.1686  0.3389  0.4721
  396DOPC   H4Y54607   4.030  10.365   2.728  1.4599  1.2816  1.7139
  396DOPC   C3554608   3.966  10.559   2.693 -0.3112  0.2831 -0.1341
  396DOPC   H5X54609   3.861  10.538   2.724 -0.4148  1.1318  0.1007
  396DOPC   H5Y54610   3.966  10.632   2.609 -1.3511 -0.8743 -1.1936
  396DOPC   C3654611   4.047  10.640   2.792  0.4589  0.5311 -0.5607
  396DOPC   H6X54612   4.152  10.643   2.757  0.2179  0.0040 -1.3363
  396DOPC   H6Y54613   4.006  10.743   2.799 -1.8173 -0.3560  0.1796
  396DOPC   C3754614   4.041  10.568   2.929  0.4527  0.3592 -0.6747
  396DOPC   H7X54615   3.937  10.555   2.965  0.0708 -0.2115 -1.9431
  396DOPC   H7Y54616   4.094  10.471   2.916  0.8121  0.3376  0.7453
  396DOPC   C3854617   4.115  10.636   3.041 -0.7627 -0.1828 -0.7369
  396DOPC   H8X54618   4.070  10.736   3.056 -1.2849 -0.2241 -1.9696
  396DOPC   H8Y54619   4.222  10.654   3.015 -0.5961 -1.6810 -1.1947
  396DOPC   C3954620   4.109  10.568   3.176 -0.3028 -0.1114  0.0919
  396DOPC   H9X54621   4.032  10.599   3.248  2.9847  2.9609  2.6454
  396DOPC  C31054622   4.173  10.460   3.209 -0.4722 -0.3501  0.6224
  396DOPC  H10X54623   4.149  10.429   3.312 -0.1824 -1.9445  0.2414
  396DOPC  C31154624   4.289  10.389   3.135 -0.3702  0.9636 -0.2729
  396DOPC  H11X54625   4.326  10.448   3.048  0.5878 -0.0980 -0.6062
  396DOPC  H11Y54626   4.252  10.293   3.094  0.6222 -0.2764  1.5541
  396DOPC  C31254627   4.406  10.359   3.223 -0.4430  0.6963 -0.0474
  396DOPC  H12X54628   4.457  10.453   3.254  1.2931  0.5548 -2.2291
  396DOPC  H12Y54629   4.488  10.315   3.164 -0.9805  0.5872 -0.7256
  396DOPC  C31354630   4.377  10.272   3.348 -0.5731 -0.5083  0.0544
  396DOPC  H13X54631   4.468  10.263   3.411 -0.3795 -0.8235 -0.2738
  396DOPC  H13Y54632   4.313  10.341   3.408  0.6043 -0.5518  1.4334
  396DOPC  C31454633   4.319  10.133   3.322 -0.0571  0.4338  0.1979
  396DOPC  H14X54634   4.209  10.148   3.321 -0.1504 -0.1615  0.7470
  396DOPC  H14Y54635   4.362  10.099   3.225  0.8790  0.2430  0.6654
  396DOPC  C31554636   4.353  10.038   3.436 -0.2670 -0.7192 -0.0856
  396DOPC  H15X54637   4.462  10.053   3.447 -0.3348  0.1175 -0.4516
  396DOPC  H15Y54638   4.328   9.932   3.411  0.4531 -0.2588 -3.2012
  396DOPC  C31654639   4.282  10.082   3.568  0.7396  0.3991 -0.3888
  396DOPC  H16X54640   4.303  10.187   3.599 -0.7645  0.5423  0.2424
  396DOPC  H16Y54641   4.172  10.074   3.554  0.5693  1.4003  0.2688
  396DOPC  C31754642   4.329   9.996   3.686 -0.4235 -0.5354 -0.4460
  396DOPC  H17X54643   4.324   9.890   3.652  1.7840 -1.2146  1.1388
  396DOPC  H17Y54644   4.437  10.010   3.704  0.1190 -4.1951 -0.0856
  396DOPC  C31854645   4.245  10.013   3.816 -0.4108 -0.3984 -0.1710
  396DOPC  H18X54646   4.152   9.956   3.798 -0.2277 -0.3765 -1.2593
  396DOPC  H18Y54647   4.287   9.966   3.908 -1.4484 -0.2856  0.3795
  396DOPC  H18Z54648   4.219  10.119   3.839  3.3970  0.6765 -0.1560
  397DOPC     N54649   0.354  11.005   2.127  0.5405 -0.6906  0.1698
  397DOPC   C1254650   0.449  11.045   2.236 -0.2091 -0.1654 -0.8503
  397DOPC  H12A54651   0.539  11.089   2.195  0.2950 -0.1666  0.2301
  397DOPC  H12B54652   0.478  10.953   2.284  0.6459  0.3065 -0.4429
  397DOPC   C1354653   0.236  10.923   2.184 -0.3869  0.5540  0.4676
  397DOPC  H13A54654   0.158  10.915   2.110  2.5144  0.1058 -2.8096
  397DOPC  H13B54655   0.270  10.824   2.213 -2.3907  0.2789  2.1447
  397DOPC  H13C54656   0.192  10.977   2.266  0.8136  2.5087 -0.1138
  397DOPC   C1454657   0.416  10.914   2.024 -0.4944 -0.6231 -0.2594
  397DOPC  H14A54658   0.517  10.939   1.995 -1.5531  2.9120 -1.2878
  397DOPC  H14B54659   0.428  10.820   2.078 -0.3967 -0.2246  0.4276
  397DOPC  H14C54660   0.354  10.893   1.938 -2.2961  0.9681  0.5833
  397DOPC   C1554661   0.303  11.131   2.057 -0.0782  0.5602 -0.4764
  397DOPC  H15A54662   0.225  11.105   1.987  0.3571 -1.7658 -0.1707
  397DOPC  H15B54663   0.381  11.182   2.002  0.9302 -1.7789 -1.3263
  397DOPC  H15C54664   0.264  11.199   2.131  0.5815 -0.7952  1.1653
  397DOPC   C1154665   0.393  11.156   2.338  0.2517 -0.3313  0.1262
  397DOPC  H11A54666   0.288  11.124   2.353  0.1150  0.0786  0.0555
  397DOPC  H11B54667   0.461  11.144   2.425  1.3818 -2.8486 -1.0080
  397DOPC     P54668   0.508  11.375   2.261 -0.1541  0.4237  0.0305
  397DOPC   O1354669   0.461  11.502   2.208  0.2407  0.3837  0.3661
  397DOPC   O1454670   0.613  11.302   2.193 -0.4770 -0.2076  0.7299
  397DOPC   O1254671   0.386  11.286   2.279 -0.4399 -0.0398 -0.6156
  397DOPC   O1154672   0.569  11.388   2.410 -0.2494 -0.3259  0.7373
  397DOPC    C154673   0.490  11.443   2.514  0.0301  0.2718 -0.9965
  397DOPC    HA54674   0.482  11.368   2.595  3.5501 -1.5151 -2.1143
  397DOPC    HB54675   0.386  11.466   2.482 -0.4463 -1.9938 -1.2514
  397DOPC    C254676   0.544  11.577   2.570 -0.2964  0.3804 -0.0119
  397DOPC    HS54677   0.521  11.662   2.502  3.2784  0.0977 -1.8235
  397DOPC   O2154678   0.683  11.572   2.580  0.5371 -0.0512 -0.0514
  397DOPC   C2154679   0.753  11.683   2.549 -0.6125 -1.1363 -0.1977
  397DOPC   O2254680   0.707  11.790   2.504 -0.1727  0.2557  0.4000
  397DOPC   C2254681   0.897  11.678   2.610  0.5246 -0.3029 -0.2885
  397DOPC   H2R54682   0.979  11.704   2.540  0.5684  1.5371  0.3987
  397DOPC   H2S54683   0.916  11.576   2.651 -0.9896  0.0882  1.5431
  397DOPC    C354684   0.494  11.601   2.715 -0.0511  0.1038 -0.2530
  397DOPC    HX54685   0.546  11.684   2.767  0.5653 -0.8246  0.6803
  397DOPC    HY54686   0.532  11.517   2.777  0.6830  1.6962  1.5589
  397DOPC   O3154687   0.351  11.607   2.727  0.2921 -0.4259  0.6439
  397DOPC   C3154688   0.293  11.724   2.710 -0.0841  0.1122 -0.4888
  397DOPC   O3254689   0.347  11.830   2.694 -0.1561 -0.4314  0.3972
  397DOPC   C3254690   0.134  11.713   2.720 -0.4227  0.3076 -0.3127
  397DOPC   H2X54691   0.096  11.648   2.639 -0.4668  2.2290 -1.9125
  397DOPC   H2Y54692   0.121  11.662   2.818  2.0470 -0.2107 -0.2073
  397DOPC   C2354693   0.909  11.773   2.729 -0.9573  0.9312  0.2270
  397DOPC   H3R54694   0.831  11.747   2.803  0.3671  0.3789  1.4701
  397DOPC   H3S54695   0.900  11.877   2.688 -2.1808  0.4609 -0.7854
  397DOPC   C2454696   1.037  11.761   2.809  0.0857  0.0263 -0.4463
  397DOPC   H4R54697   1.123  11.797   2.749  0.3967  2.5975  1.3656
  397DOPC   H4S54698   1.060  11.655   2.833 -2.7597 -1.0285 -1.9140
  397DOPC   C2554699   1.036  11.837   2.940 -0.1668  0.1452 -0.1292
  397DOPC   H5R54700   1.127  11.813   3.001 -0.5050  0.4193  0.4950
  397DOPC   H5S54701   0.948  11.803   2.999  1.2359 -0.0059  1.9988
  397DOPC   C2654702   1.037  11.987   2.918 -0.1906 -0.5937  0.0883
  397DOPC   H6R54703   1.073  12.041   3.008  2.2771 -1.5752 -0.2300
  397DOPC   H6S54704   0.934  12.025   2.901 -0.5242 -1.4026  0.2792
  397DOPC   C2754705   1.131  12.036   2.813  0.8679 -0.2152 -0.2394
  397DOPC   H7R54706   1.089  12.005   2.715 -0.5112 -2.1276  0.8872
  397DOPC   H7S54707   1.220  11.971   2.821 -0.4812 -1.9898  1.1795
  397DOPC   C2854708   1.172  12.189   2.825  0.0469  0.6389 -0.1053
  397DOPC   H8R54709   1.266  12.196   2.767  1.1244  0.2932  1.5373
  397DOPC   H8S54710   1.210  12.217   2.926  1.2907  1.6620 -0.8243
  397DOPC   C2954711   1.059  12.281   2.776  0.6244 -0.2282  0.3398
  397DOPC   H9R54712   1.013  12.241   2.684  1.7944  1.4150 -1.0380
  397DOPC  C21054713   1.022  12.398   2.826 -0.6144 -0.0658 -0.7116
  397DOPC  H10R54714   0.924  12.443   2.803  0.2985  1.0656 -2.6455
  397DOPC  C21154715   1.083  12.459   2.950 -0.1838 -0.3341 -0.5303
  397DOPC  H11R54716   1.102  12.569   2.946  1.6414 -0.4627  2.2446
  397DOPC  H11S54717   1.191  12.434   2.952 -0.1361 -0.1815  1.7389
  397DOPC  C21254718   1.015  12.424   3.084  0.0813  0.2895  0.3083
  397DOPC  H12R54719   0.982  12.318   3.084  0.4134  0.1595 -1.4621
  397DOPC  H12S54720   0.915  12.471   3.095 -0.6012 -1.2237  0.8535
  397DOPC  C21354721   1.100  12.428   3.210 -0.6964 -0.4124  0.1250
  397DOPC  H13R54722   1.135  12.533   3.216 -0.4033 -0.3599 -1.8698
  397DOPC  H13S54723   1.190  12.364   3.197  0.3872  0.2958  3.2711
  397DOPC  C21454724   1.022  12.381   3.337  0.2648 -0.2387  0.4269
  397DOPC  H14R54725   0.991  12.277   3.317 -1.3168  0.0514  1.1644
  397DOPC  H14S54726   0.934  12.448   3.348  2.1563  2.4259  0.4511
  397DOPC  C21554727   1.111  12.396   3.459  0.1571 -0.3824 -0.4007
  397DOPC  H15R54728   1.051  12.381   3.552  0.6397  0.3044  0.0301
  397DOPC  H15S54729   1.154  12.498   3.460  0.0449 -0.3257 -1.3073
  397DOPC  C21654730   1.214  12.280   3.463 -1.2848  0.4130 -0.1579
  397DOPC  H16R54731   1.302  12.294   3.396 -1.7450  0.6814 -0.7120
  397DOPC  H16S54732   1.166  12.195   3.410 -0.2499  0.9729 -2.0960
  397DOPC  C21754733   1.271  12.246   3.601  0.4395  0.0817  0.4658
  397DOPC  H17R54734   1.316  12.342   3.636  1.6437 -0.2442 -0.1398
  397DOPC  H17S54735   1.348  12.166   3.600  0.7270  0.2538  2.7748
  397DOPC  C21854736   1.166  12.200   3.702  0.0050  0.6287 -0.3611
  397DOPC  H18R54737   1.078  12.265   3.721 -0.2560  0.4539 -0.9475
  397DOPC  H18S54738   1.209  12.179   3.803 -0.0074 -0.1758 -0.5167
  397DOPC  H18T54739   1.128  12.100   3.670 -1.0356  1.5445 -2.1061
  397DOPC   C3354740   0.062  11.846   2.709  0.0742 -0.3764  0.0223
  397DOPC   H3X54741  -0.048  11.833   2.703 -0.2070 -0.0759  2.8916
  397DOPC   H3Y54742   0.101  11.896   2.618  0.8689  0.4611  0.7901
  397DOPC   C3454743   0.091  11.932   2.830 -0.3118 -0.4747 -0.1866
  397DOPC   H4X54744   0.023  12.016   2.806  0.9466  0.3753 -0.9149
  397DOPC   H4Y54745   0.198  11.961   2.824 -0.3969 -0.3605 -1.4000
  397DOPC   C3554746   0.063  11.871   2.972  0.4508 -0.3935 -0.0915
  397DOPC   H5X54747   0.128  11.783   2.989  0.9467 -0.3132 -1.4768
  397DOPC   H5Y54748  -0.042  11.836   2.969  0.2211  0.3441 -1.2103
  397DOPC   C3654749   0.093  11.971   3.087 -0.6237  0.4064 -0.3268
  397DOPC   H6X54750   0.199  11.986   3.059 -0.0205 -1.6076  0.6912
  397DOPC   H6Y54751   0.046  12.070   3.071  2.1953  2.3504  2.3736
  397DOPC   C3754752   0.075  11.927   3.229  0.9779  1.1604 -0.0146
  397DOPC   H7X54753  -0.034  11.910   3.246  0.8122 -2.4046 -3.3383
  397DOPC   H7Y54754   0.120  11.825   3.237 -1.6618 -0.0953 -0.1570
  397DOPC   C3854755   0.129  12.027   3.333 -0.2135  0.4567  0.4435
  397DOPC   H8X54756   0.099  11.987   3.432 -1.4973 -1.6157 -0.7303
  397DOPC   H8Y54757   0.073  12.121   3.313 -0.4154  0.5251  1.3122
  397DOPC   C3954758   0.283  12.050   3.317  0.5267 -0.5072 -0.1026
  397DOPC   H9X54759   0.300  12.083   3.213 -0.7715  0.1350 -0.1265
  397DOPC  C31054760   0.389  12.027   3.393 -0.4461  0.1983 -0.7717
  397DOPC  H10X54761   0.487  12.045   3.346  1.2483 -0.1716  2.4057
  397DOPC  C31154762   0.389  11.989   3.541  0.0026 -0.0535 -0.0830
  397DOPC  H11X54763   0.302  12.040   3.587 -0.0910  1.3183 -1.6864
  397DOPC  H11Y54764   0.469  12.020   3.610  0.3700 -3.2835  1.1272
  397DOPC  C31254765   0.376  11.840   3.580  0.2012  0.1722 -0.2653
  397DOPC  H12X54766   0.444  11.766   3.532 -1.7906 -1.5964 -0.4893
  397DOPC  H12Y54767   0.271  11.807   3.563 -0.0039  1.0855 -0.8206
  397DOPC  C31354768   0.406  11.818   3.733 -0.5535  0.4497  0.5496
  397DOPC  H13X54769   0.516  11.833   3.728 -0.5000 -0.1298 -2.9327
  397DOPC  H13Y54770   0.351  11.889   3.798  3.2236  0.6670  3.9018
  397DOPC  C31454771   0.378  11.669   3.764  0.3805  0.4998  0.9444
  397DOPC  H14X54772   0.269  11.649   3.758  0.9084 -2.1912 -1.0149
  397DOPC  H14Y54773   0.435  11.619   3.683 -2.3733 -0.0116 -0.7972
  397DOPC  C31554774   0.428  11.635   3.905 -0.1417  0.1608 -0.0865
  397DOPC  H15X54775   0.521  11.695   3.915 -0.1547 -0.0110  1.3468
  397DOPC  H15Y54776   0.464  11.530   3.899 -0.9700 -0.0920 -1.0360
  397DOPC  C31654777   0.336  11.688   4.019  0.4503  1.0133  1.1620
  397DOPC  H16X54778   0.308  11.795   4.001  1.6488  1.5331  2.2225
  397DOPC  H16Y54779   0.244  11.627   4.009  0.4501  1.2740 -1.0907
  397DOPC  C31754780   0.384  11.667   4.167  0.2644  0.1530  0.8004
  397DOPC  H17X54781   0.300  11.673   4.239 -1.5082  2.3432 -1.3001
  397DOPC  H17Y54782   0.432  11.567   4.169  0.8051  0.3797 -0.3615
  397DOPC  C31854783   0.487  11.775   4.202 -0.4454 -0.8513 -0.5175
  397DOPC  H18X54784   0.541  11.757   4.297  0.8405  1.3796 -0.7580
  397DOPC  H18Y54785   0.567  11.764   4.125  0.0661 -3.0973  0.2345
  397DOPC  H18Z54786   0.432  11.871   4.205 -0.4832 -0.9122  1.5651
  398DOPC     N54787   5.803   7.240   1.712  0.9239 -0.2555  0.0413
  398DOPC   C1254788   5.677   7.217   1.801  0.1193  0.5095 -0.2897
  398DOPC  H12A54789   5.654   7.112   1.808  0.4572  0.4788  0.4265
  398DOPC  H12B54790   5.588   7.252   1.751 -0.5473 -2.8550 -1.7876
  398DOPC   C1354791   5.803   7.386   1.670 -0.1539 -0.2372  0.1951
  398DOPC  H13A54792   5.704   7.430   1.673 -0.1013  0.0772 -1.4455
  398DOPC  H13B54793   5.859   7.442   1.743 -0.7449 -0.5100  0.8699
  398DOPC  H13C54794   5.854   7.406   1.577 -0.1653  1.8577  0.5906
  398DOPC   C1454795   5.796   7.148   1.590  0.4938  0.3084  0.2497
  398DOPC  H14A54796   5.781   7.047   1.625 -0.0246  1.0009  2.1421
  398DOPC  H14B54797   5.714   7.168   1.523  0.7078 -1.9711 -0.7795
  398DOPC  H14C54798   5.887   7.160   1.534 -0.6637 -0.1467 -1.8369
  398DOPC   C1554799   5.919   7.203   1.795 -0.6390  0.0065 -0.2042
  398DOPC  H15A54800   5.920   7.257   1.888 -0.8539 -0.0194 -0.1864
  398DOPC  H15B54801   6.009   7.212   1.737 -0.4254 -0.6169  0.0214
  398DOPC  H15C54802   5.907   7.096   1.811 -0.8918 -0.0888 -0.9741
  398DOPC   C1154803   5.673   7.274   1.948  0.0159  0.1840  0.0716
  398DOPC  H11A54804   5.579   7.230   1.986 -0.3842 -1.4746 -2.6003
  398DOPC  H11B54805   5.759   7.231   2.004 -0.3760 -0.7075 -0.0044
  398DOPC     P54806   5.536   7.498   1.918 -0.2214 -0.3849 -0.3594
  398DOPC   O1354807   5.446   7.395   1.859  0.1575 -0.0488 -0.4328
  398DOPC   O1454808   5.551   7.623   1.842  0.2845  0.3997 -0.1961
  398DOPC   O1254809   5.671   7.423   1.937  0.0194 -0.0406  0.1233
  398DOPC   O1154810   5.490   7.539   2.067  0.2210 -0.6569  1.0942
  398DOPC    C154811   5.561   7.517   2.186 -0.2120  0.0989  0.1490
  398DOPC    HA54812   5.654   7.458   2.172 -1.0992 -1.2181 -0.3652
  398DOPC    HB54813   5.492   7.447   2.238  1.1891 -1.8892 -0.5423
  398DOPC    C254814   5.608   7.646   2.259  0.7396 -0.3267 -0.7515
  398DOPC    HS54815   5.671   7.603   2.340 -0.5965 -0.3052  0.3240
  398DOPC   O2154816   5.496   7.734   2.301 -0.6655 -0.1021 -0.1311
  398DOPC   C2154817   5.493   7.745   2.441  0.0492  0.1016 -0.4586
  398DOPC   O2254818   5.559   7.686   2.520  0.4011 -0.3354  0.0019
  398DOPC   C2254819   5.369   7.830   2.472 -0.0984 -0.0742  0.0155
  398DOPC   H2R54820   5.296   7.753   2.503  1.4023 -0.9054  1.6434
  398DOPC   H2S54821   5.345   7.881   2.376  0.7668 -0.7307 -0.5717
  398DOPC    C354822   5.699   7.737   2.169 -1.1624  0.2514  0.6068
  398DOPC    HX54823   5.629   7.742   2.083 -1.4619 -0.6035  0.7925
  398DOPC    HY54824   5.787   7.676   2.139 -1.1344  0.0540  1.0824
  398DOPC   O3154825   5.722   7.865   2.234  0.2316  0.1559  0.0927
  398DOPC   C3154826   5.828   7.868   2.323  1.0947  0.2161  0.7094
  398DOPC   O3254827   5.905   7.770   2.336  0.6522  0.2494  0.1759
  398DOPC   C3254828   5.832   7.994   2.407 -0.1234 -0.0292  0.2648
  398DOPC   H2X54829   5.907   8.052   2.349  1.4113 -3.3255 -1.3649
  398DOPC   H2Y54830   5.730   8.038   2.412 -0.2956 -0.5406  1.8401
  398DOPC   C2354831   5.382   7.936   2.582 -0.2057 -0.4287  0.3316
  398DOPC   H3R54832   5.302   8.010   2.563 -0.4034 -1.1528 -2.0318
  398DOPC   H3S54833   5.478   7.989   2.564  0.1298 -1.7916 -2.4723
  398DOPC   C2454834   5.367   7.889   2.724  0.0617  0.2631  0.8945
  398DOPC   H4R54835   5.454   7.828   2.754  0.5416  0.2340 -0.4963
  398DOPC   H4S54836   5.274   7.827   2.726  0.9465 -1.1755 -0.1670
  398DOPC   C2554837   5.353   8.005   2.821  0.1464  0.0276  0.2734
  398DOPC   H5R54838   5.283   8.082   2.781 -0.2080 -0.0464  0.7499
  398DOPC   H5S54839   5.444   8.068   2.834  0.0859  0.3212 -0.6473
  398DOPC   C2654840   5.299   7.968   2.958 -0.0413  0.1195 -0.0984
  398DOPC   H6R54841   5.303   8.059   3.021 -2.3129  1.9269 -2.3514
  398DOPC   H6S54842   5.358   7.889   3.010 -0.3568 -1.1518 -1.6126
  398DOPC   C2754843   5.151   7.923   2.952  0.0012  0.7369 -0.2014
  398DOPC   H7R54844   5.138   7.822   2.907 -2.3590  1.0079 -0.2537
  398DOPC   H7S54845   5.105   7.998   2.884 -0.1823 -0.2681 -1.2148
  398DOPC   C2854846   5.084   7.927   3.094 -0.1854 -0.0483 -0.7169
  398DOPC   H8R54847   4.973   7.927   3.086 -0.3723 -1.3718  1.1931
  398DOPC   H8S54848   5.107   8.031   3.127  1.1394 -0.0757 -1.5106
  398DOPC   C2954849   5.146   7.840   3.204  0.3690 -0.9848  0.1486
  398DOPC   H9R54850   5.251   7.856   3.231 -0.4219 -0.7124  3.4372
  398DOPC  C21054851   5.084   7.742   3.270  0.3841  0.8308 -0.1894
  398DOPC  H10R54852   5.144   7.698   3.352  1.6254  1.9783 -0.4562
  398DOPC  C21154853   4.936   7.713   3.270 -0.4106  0.0574 -0.0274
  398DOPC  H11R54854   4.916   7.614   3.224 -0.8102  0.9626 -1.9295
  398DOPC  H11S54855   4.889   7.787   3.202  1.0558 -1.1223 -2.4723
  398DOPC  C21254856   4.874   7.722   3.402 -1.2147 -0.2383 -0.6810
  398DOPC  H12R54857   4.898   7.818   3.453 -0.9636 -0.1091 -1.0347
  398DOPC  H12S54858   4.913   7.649   3.477  1.9754  1.4999 -0.4697
  398DOPC  C21354859   4.727   7.693   3.391  0.5089  0.3891  0.2066
  398DOPC  H13R54860   4.714   7.587   3.360 -1.1087  0.5511  0.2460
  398DOPC  H13S54861   4.688   7.761   3.313 -0.9391 -0.0661  0.5016
  398DOPC  C21454862   4.654   7.725   3.517  0.6844  0.1295 -0.5957
  398DOPC  H14R54863   4.674   7.830   3.548  1.8932 -0.3716  0.3891
  398DOPC  H14S54864   4.689   7.663   3.601 -0.3646 -0.2613 -0.4259
  398DOPC  C21554865   4.500   7.707   3.488 -0.5635  0.2798 -0.7991
  398DOPC  H15R54866   4.489   7.613   3.430  2.5319 -0.2472 -0.6961
  398DOPC  H15S54867   4.463   7.792   3.427  0.9799  1.7910  0.2892
  398DOPC  C21654868   4.421   7.687   3.618 -0.1224 -1.5152 -0.0830
  398DOPC  H16R54869   4.315   7.712   3.599  0.2476  1.9293  1.6796
  398DOPC  H16S54870   4.466   7.751   3.696 -0.4533 -0.3733 -0.8080
  398DOPC  C21754871   4.413   7.543   3.661  0.1872  0.3265  0.2677
  398DOPC  H17R54872   4.516   7.502   3.662 -0.5396 -1.6911 -1.1387
  398DOPC  H17S54873   4.378   7.483   3.574  1.5149  2.0598 -1.5485
  398DOPC  C21854874   4.334   7.509   3.781  0.4323 -0.0544 -0.0474
  398DOPC  H18R54875   4.353   7.581   3.863  1.6561  0.7653 -1.0169
  398DOPC  H18S54876   4.338   7.405   3.821  0.4158  0.0131  0.1274
  398DOPC  H18T54877   4.227   7.521   3.756  0.7139  0.5633 -1.0155
  398DOPC   C3354878   5.888   7.976   2.555 -0.0921  0.0479  0.0041
  398DOPC   H3X54879   5.899   8.078   2.598 -0.2148  0.3769 -0.7265
  398DOPC   H3Y54880   5.992   7.937   2.556  0.8025  2.2959  0.7705
  398DOPC   C3454881   5.789   7.900   2.645  0.3190  0.0513  0.0019
  398DOPC   H4X54882   5.758   7.806   2.593 -0.4556  0.0014  0.5292
  398DOPC   H4Y54883   5.698   7.963   2.655  0.6328  0.1839  2.9932
  398DOPC   C3554884   5.839   7.858   2.784  0.0495 -0.1363 -0.6846
  398DOPC   H5X54885   5.848   7.954   2.840 -1.1939 -0.6365  0.4439
  398DOPC   H5Y54886   5.939   7.809   2.779 -0.1989 -0.6782 -0.4117
  398DOPC   C3654887   5.739   7.771   2.861  0.2540 -0.7902 -0.3020
  398DOPC   H6X54888   5.653   7.841   2.868  2.2575  1.6635  1.9825
  398DOPC   H6Y54889   5.723   7.690   2.787  0.1483  0.3240 -1.5603
  398DOPC   C3754890   5.789   7.723   2.995  0.4557  0.1539 -0.6472
  398DOPC   H7X54891   5.723   7.641   3.031  0.9724  0.6338  1.5011
  398DOPC   H7Y54892   5.890   7.680   2.980  0.0435 -0.7130 -0.9834
  398DOPC   C3854893   5.784   7.826   3.116  0.0585 -0.4202 -0.2409
  398DOPC   H8X54894   5.838   7.916   3.078  3.5472 -1.5490  1.5991
  398DOPC   H8Y54895   5.850   7.792   3.199  0.4620 -1.0799 -0.8220
  398DOPC   C3954896   5.643   7.861   3.172 -0.3666 -0.7095  0.0944
  398DOPC   H9X54897   5.575   7.892   3.092  0.2246 -0.2967 -0.2511
  398DOPC  C31054898   5.594   7.867   3.298  0.3225 -0.2592  0.2475
  398DOPC  H10X54899   5.497   7.913   3.321  0.1417  0.1297 -1.1849
  398DOPC  C31154900   5.672   7.817   3.419  0.0316  0.5174  0.1730
  398DOPC  H11X54901   5.770   7.771   3.390  0.9670 -0.1203  3.8701
  398DOPC  H11Y54902   5.612   7.744   3.477  1.5643 -1.0319 -0.0854
  398DOPC  C31254903   5.711   7.929   3.515 -0.1207 -0.2474 -0.0591
  398DOPC  H12X54904   5.780   8.004   3.471 -0.5222  0.7459  0.9649
  398DOPC  H12Y54905   5.769   7.879   3.595 -1.1305  0.6468  1.2831
  398DOPC  C31354906   5.595   7.997   3.590 -0.6676  0.0408  0.3800
  398DOPC  H13X54907   5.646   8.057   3.668  1.8268 -0.8641 -0.4590
  398DOPC  H13Y54908   5.527   8.063   3.532  0.2497 -0.2300 -1.0451
  398DOPC  C31454909   5.503   7.900   3.670  0.1232 -0.0588  0.1364
  398DOPC  H14X54910   5.467   7.826   3.597  1.0162 -0.8831  0.5049
  398DOPC  H14Y54911   5.570   7.844   3.739  0.3201 -1.2385 -0.9868
  398DOPC  C31554912   5.391   7.973   3.753  0.0760 -0.1444  0.3454
  398DOPC  H15X54913   5.330   8.025   3.676 -0.9559 -1.0342  0.5363
  398DOPC  H15Y54914   5.448   8.045   3.816  1.0645  0.1007 -0.7969
  398DOPC  C31654915   5.296   7.889   3.834 -0.7281 -0.3039 -0.0026
  398DOPC  H16X54916   5.304   7.780   3.815 -1.7969 -0.2845 -0.6467
  398DOPC  H16Y54917   5.319   7.903   3.942 -0.1311 -0.5416 -0.0972
  398DOPC  C31754918   5.147   7.909   3.816 -0.2792 -0.3111  0.5451
  398DOPC  H17X54919   5.094   7.834   3.879  1.0270 -0.0355  2.0405
  398DOPC  H17Y54920   5.107   8.009   3.842  0.2419  0.0290  0.0600
  398DOPC  C31854921   5.105   7.873   3.672 -0.2561 -0.0647 -0.3729
  398DOPC  H18X54922   5.005   7.913   3.644 -0.4872  0.1002  0.6304
  398DOPC  H18Y54923   5.175   7.919   3.599  0.9237  1.8994  1.8411
  398DOPC  H18Z54924   5.102   7.764   3.655 -0.5166 -0.2072  0.5068
  399DOPC     N54925   8.713   4.750   2.086  0.0872 -0.3231  0.5669
  399DOPC   C1254926   8.597   4.730   2.186  0.2234  0.4062 -0.2863
  399DOPC  H12A54927   8.510   4.713   2.125  0.2066  1.2244 -0.5147
  399DOPC  H12B54928   8.584   4.830   2.226 -1.1290  0.4797 -0.8802
  399DOPC   C1354929   8.836   4.771   2.162 -0.2444  0.0052 -0.6518
  399DOPC  H13A54930   8.863   4.684   2.219 -0.9274  0.1260 -0.1391
  399DOPC  H13B54931   8.914   4.804   2.095  0.9872 -0.2821  0.5962
  399DOPC  H13C54932   8.811   4.849   2.232 -1.7877 -1.5472  0.6149
  399DOPC   C1454933   8.684   4.871   2.005 -0.1073 -0.9175  0.1196
  399DOPC  H14A54934   8.660   4.964   2.054 -0.1344 -0.5887 -0.5109
  399DOPC  H14B54935   8.776   4.903   1.957  0.0836  0.4304  1.3475
  399DOPC  H14C54936   8.603   4.855   1.936  0.9699  1.8834 -1.9659
  399DOPC   C1554937   8.733   4.639   1.990  0.2266 -0.1333  0.5363
  399DOPC  H15A54938   8.798   4.655   1.906 -1.6449 -1.7049 -1.3424
  399DOPC  H15B54939   8.633   4.617   1.956  0.6671  0.6299 -1.3195
  399DOPC  H15C54940   8.771   4.549   2.038  1.3949  0.7688  1.3405
  399DOPC   C1154941   8.602   4.611   2.299 -0.2239  0.0459  0.0430
  399DOPC  H11A54942   8.699   4.631   2.350 -0.4754 -1.2460  1.0916
  399DOPC  H11B54943   8.522   4.633   2.373 -1.0217  3.5085 -1.6616
  399DOPC     P54944   8.479   4.418   2.188  0.0266  0.0204 -0.0226
  399DOPC   O1354945   8.516   4.311   2.091 -0.3276 -0.1172 -0.1331
  399DOPC   O1454946   8.397   4.530   2.134 -0.3169  0.1525 -0.5244
  399DOPC   O1254947   8.610   4.477   2.249 -0.3965 -0.8510  0.2979
  399DOPC   O1154948   8.403   4.349   2.309  0.2043 -0.1226  0.5841
  399DOPC    C154949   8.356   4.431   2.409  0.6112  0.0772 -0.2988
  399DOPC    HA54950   8.297   4.517   2.372 -0.1344  0.8596  2.4603
  399DOPC    HB54951   8.433   4.466   2.482  2.6873 -0.4782 -2.1080
  399DOPC    C254952   8.245   4.360   2.493 -0.8847 -0.2201  0.5535
  399DOPC    HS54953   8.235   4.432   2.577 -0.3479 -0.0261  0.4595
  399DOPC   O2154954   8.285   4.232   2.537  0.2694  0.2587  0.8995
  399DOPC   C2154955   8.382   4.236   2.624 -0.4616 -0.1805 -0.5249
  399DOPC   O2254956   8.431   4.338   2.671  0.1979 -0.5599 -0.0445
  399DOPC   C2254957   8.421   4.089   2.667 -0.6280 -0.6453 -0.5405
  399DOPC   H2R54958   8.476   4.043   2.583 -0.2584 -1.0315 -0.0929
  399DOPC   H2S54959   8.331   4.024   2.678 -0.0431 -1.7650 -2.0198
  399DOPC    C354960   8.112   4.351   2.416  0.4223  0.6198 -0.6944
  399DOPC    HX54961   8.125   4.301   2.317 -1.5497 -1.1256 -0.1406
  399DOPC    HY54962   8.074   4.446   2.375 -1.6792  0.1954  0.1518
  399DOPC   O3154963   8.013   4.288   2.503 -0.2447 -0.2171  0.1101
  399DOPC   C3154964   8.011   4.153   2.500 -0.2241  0.1356 -0.7391
  399DOPC   O3254965   8.055   4.082   2.410  0.2522 -0.3649  0.2594
  399DOPC   C3254966   7.956   4.093   2.628 -0.5023  0.8936 -0.3888
  399DOPC   H2X54967   8.005   4.143   2.714  0.6174 -1.4628  0.4249
  399DOPC   H2Y54968   7.847   4.113   2.626 -0.7508 -0.2266 -3.4380
  399DOPC   C2354969   8.504   4.087   2.801 -0.6777 -0.1256 -0.3558
  399DOPC   H3R54970   8.601   4.141   2.790  0.3869 -2.0342 -0.8523
  399DOPC   H3S54971   8.535   3.981   2.816 -1.8241 -0.2897  1.0356
  399DOPC   C2454972   8.432   4.143   2.921 -0.0608  0.0553 -0.7674
  399DOPC   H4R54973   8.359   4.068   2.959  0.7371  0.0857  0.9301
  399DOPC   H4S54974   8.379   4.236   2.889  2.2022  0.8141 -2.6535
  399DOPC   C2554975   8.524   4.182   3.040  0.3054  0.2998 -0.1822
  399DOPC   H5R54976   8.613   4.231   2.995  0.6258  1.1042  1.2762
  399DOPC   H5S54977   8.563   4.088   3.087 -0.9169  1.1343  2.7249
  399DOPC   C2654978   8.445   4.264   3.132  0.7490 -0.0541  0.1283
  399DOPC   H6R54979   8.353   4.207   3.157  1.7960 -1.7834  0.2263
  399DOPC   H6S54980   8.402   4.360   3.098  2.7246  1.1743  0.9465
  399DOPC   C2754981   8.521   4.299   3.258 -0.1315  0.4442 -0.3532
  399DOPC   H7R54982   8.601   4.373   3.238 -1.0272  1.6688  0.4730
  399DOPC   H7S54983   8.581   4.219   3.307  0.2672  0.9216 -0.0479
  399DOPC   C2854984   8.433   4.369   3.364 -0.3629 -0.9294 -0.2858
  399DOPC   H8R54985   8.476   4.360   3.466 -0.2885  2.0133  0.0353
  399DOPC   H8S54986   8.328   4.333   3.363  0.0658 -2.2142 -0.8447
  399DOPC   C2954987   8.429   4.513   3.338  0.5100 -0.2153 -0.5121
  399DOPC   H9R54988   8.335   4.543   3.289  0.2293 -0.4822 -0.1404
  399DOPC  C21054989   8.522   4.603   3.367 -0.4775  0.7854 -0.1022
  399DOPC  H10R54990   8.501   4.711   3.359 -1.0027  0.7656  0.8587
  399DOPC  C21154991   8.650   4.596   3.439  0.7906  0.0961 -0.3812
  399DOPC  H11R54992   8.664   4.492   3.477 -1.5626  0.3986  1.5886
  399DOPC  H11S54993   8.638   4.656   3.532  1.1582 -0.5631  0.1090
  399DOPC  C21254994   8.776   4.648   3.359 -0.0022 -0.0265 -0.4935
  399DOPC  H12R54995   8.747   4.744   3.313  1.4500  0.8391  0.3149
  399DOPC  H12S54996   8.796   4.581   3.272 -0.2304  0.0270 -0.5865
  399DOPC  C21354997   8.890   4.672   3.454 -0.4245 -0.7143 -0.6150
  399DOPC  H13R54998   8.921   4.579   3.507  0.6264  0.2733  0.5721
  399DOPC  H13S54999   8.873   4.754   3.527 -2.1075  0.0070 -1.7786
  399DOPC  C21455000   9.014   4.696   3.371  0.1664 -1.2046  0.6182
  399DOPC  H14R55001   9.003   4.792   3.316 -1.5328 -1.3047  0.7540
  399DOPC  H14S55002   9.028   4.621   3.291  0.7524 -1.1910  0.6976
  399DOPC  C21555003   9.132   4.706   3.469 -0.3504 -0.0801 -0.8188
  399DOPC  H15R55004   9.133   4.609   3.523  1.2121  0.2019 -0.2873
  399DOPC  H15S55005   9.119   4.781   3.549  1.1206 -2.0300  1.3822
  399DOPC  C21655006   9.263   4.729   3.391  0.2520  0.1664  0.4785
  399DOPC  H16R55007   9.335   4.785   3.455  1.0495  1.0011 -1.0758
  399DOPC  H16S55008   9.251   4.790   3.299 -2.3411 -1.9160 -0.6939
  399DOPC  C21755009   9.335   4.597   3.340  0.4189 -0.5178 -0.6782
  399DOPC  H17R55010   9.255   4.559   3.273 -1.5481  0.8246  0.7919
  399DOPC  H17S55011   9.350   4.521   3.419  1.4548 -0.1825 -0.5366
  399DOPC  C21855012   9.472   4.617   3.275 -0.0251 -0.2078  0.6321
  399DOPC  H18R55013   9.551   4.649   3.346  1.5274 -0.8874 -0.7387
  399DOPC  H18S55014   9.467   4.692   3.194  1.8084 -0.1320  0.5543
  399DOPC  H18T55015   9.517   4.531   3.222 -1.0166 -1.5141  1.8217
  399DOPC   C3355016   7.978   3.940   2.637 -0.1512  0.2134  0.3451
  399DOPC   H3X55017   8.075   3.903   2.598  0.0883 -0.4826  1.5351
  399DOPC   H3Y55018   7.907   3.875   2.581  0.4545 -0.0863 -0.0869
  399DOPC   C3455019   7.972   3.882   2.782 -1.1906 -0.0750 -0.2434
  399DOPC   H4X55020   7.958   3.772   2.781  3.2822 -0.8386  1.0007
  399DOPC   H4Y55021   7.886   3.922   2.840 -2.8705 -1.1467 -1.8942
  399DOPC   C3555022   8.087   3.913   2.872  0.6177  0.5317  0.3791
  399DOPC   H5X55023   8.120   4.018   2.863  0.8466  0.3977 -0.4052
  399DOPC   H5Y55024   8.174   3.852   2.839  1.8797  1.5890  1.6237
  399DOPC   C3655025   8.064   3.880   3.020  0.2272  0.1508  0.2097
  399DOPC   H6X55026   7.981   3.941   3.062  0.4781  0.1273  0.7519
  399DOPC   H6Y55027   8.027   3.776   3.033  4.3711 -1.3554  1.4298
  399DOPC   C3755028   8.183   3.902   3.110 -0.0944 -0.7671  0.2565
  399DOPC   H7X55029   8.271   3.842   3.081  0.4067 -1.3109  2.6462
  399DOPC   H7Y55030   8.211   4.009   3.104  3.4374 -1.6174 -0.1605
  399DOPC   C3855031   8.141   3.870   3.256  0.5131  0.3190 -0.3009
  399DOPC   H8X55032   8.093   3.771   3.244 -1.5006  1.3436 -1.0524
  399DOPC   H8Y55033   8.061   3.941   3.284 -1.1933 -1.9210  0.8112
  399DOPC   C3955034   8.261   3.875   3.355  0.2702  1.1769 -0.3113
  399DOPC   H9X55035   8.349   3.815   3.329  1.0269  2.2970 -0.3676
  399DOPC  C31055036   8.263   3.950   3.469  0.7029  0.0744  0.3888
  399DOPC  H10X55037   8.360   3.962   3.518  1.7519  1.4775 -1.8880
  399DOPC  C31155038   8.157   4.043   3.517 -0.0528 -0.3978  0.2232
  399DOPC  H11X55039   8.056   3.998   3.517 -0.0656 -0.3726 -0.0200
  399DOPC  H11Y55040   8.152   4.134   3.453 -0.8309  0.1208  0.9969
  399DOPC  C31255041   8.207   4.100   3.651  0.3593 -0.9604  0.1133
  399DOPC  H12X55042   8.240   4.010   3.708  0.4960 -1.2796 -0.4636
  399DOPC  H12Y55043   8.113   4.142   3.692 -0.0046 -2.3587  0.7737
  399DOPC  C31355044   8.309   4.215   3.653 -0.0560 -0.7882 -0.9978
  399DOPC  H13X55045   8.387   4.190   3.579  0.3312  0.5933 -1.0703
  399DOPC  H13Y55046   8.257   4.309   3.627  2.9216  1.3919  0.4643
  399DOPC  C31455047   8.370   4.245   3.795  0.6148 -0.1784 -0.1797
  399DOPC  H14X55048   8.293   4.272   3.871 -1.0379 -1.2691 -1.4017
  399DOPC  H14Y55049   8.428   4.162   3.840  0.6188  0.4194  0.9412
  399DOPC  C31555050   8.462   4.366   3.791  0.5493 -0.4131 -0.3519
  399DOPC  H15X55051   8.424   4.444   3.723  2.9027  2.8184  1.7494
  399DOPC  H15Y55052   8.561   4.330   3.757  1.4536  1.0272  0.6635
  399DOPC  C31655053   8.474   4.437   3.934 -0.3752  0.1464  1.0608
  399DOPC  H16X55054   8.550   4.518   3.932 -0.7805  0.5234 -0.1602
  399DOPC  H16Y55055   8.382   4.496   3.956 -1.0575 -1.0642  1.5437
  399DOPC  C31755056   8.511   4.325   4.036 -0.0335 -0.2736 -0.3861
  399DOPC  H17X55057   8.419   4.277   4.076  0.0984 -1.0958 -1.0327
  399DOPC  H17Y55058   8.564   4.245   3.980 -1.1708 -0.1611 -1.6778
  399DOPC  C31855059   8.579   4.387   4.158  0.0834  0.2484  1.0723
  399DOPC  H18X55060   8.539   4.487   4.185  1.5055  1.3207 -0.5544
  399DOPC  H18Y55061   8.565   4.324   4.249 -0.6584  1.8909  2.1335
  399DOPC  H18Z55062   8.687   4.404   4.136 -0.2741  0.9839 -0.2521
  400DOPC     N55063   8.837  10.623   1.749  0.0475 -0.4456 -0.4233
  400DOPC   C1255064   8.867  10.552   1.883 -1.1436  0.4675  0.3519
  400DOPC  H12A55065   8.941  10.474   1.875 -1.2129  0.5050 -0.9686
  400DOPC  H12B55066   8.781  10.494   1.912 -1.0763  0.4411  0.4969
  400DOPC   C1355067   8.714  10.709   1.762 -0.3460 -0.1041  0.1199
  400DOPC  H13A55068   8.628  10.646   1.779 -1.3735  0.3070 -3.0630
  400DOPC  H13B55069   8.726  10.771   1.850  0.6844 -0.0838 -0.0198
  400DOPC  H13C55070   8.697  10.772   1.676 -1.8691 -1.3327 -0.5375
  400DOPC   C1455071   8.805  10.528   1.642  0.3298  0.2204 -0.2420
  400DOPC  H14A55072   8.884  10.463   1.609 -0.9274 -1.1887 -0.6189
  400DOPC  H14B55073   8.727  10.456   1.664  0.7516 -0.1730  0.0058
  400DOPC  H14C55074   8.776  10.589   1.559 -1.8598  0.4806  0.6494
  400DOPC   C1555075   8.955  10.709   1.710 -0.2611 -0.1144 -0.0467
  400DOPC  H15A55076   8.963  10.785   1.786  0.6014  0.4982 -0.7284
  400DOPC  H15B55077   8.950  10.758   1.614 -0.5415 -0.3192 -0.1379
  400DOPC  H15C55078   9.047  10.654   1.705 -0.7132 -0.8599 -0.4713
  400DOPC   C1155079   8.904  10.644   1.996  0.4937  0.1243  0.5032
  400DOPC  H11A55080   8.937  10.579   2.080  0.3485 -0.2105  0.3025
  400DOPC  H11B55081   8.984  10.711   1.959  2.0600 -0.9637  1.7769
  400DOPC     P55082   8.663  10.674   2.112 -0.2244  0.1622 -0.2900
  400DOPC   O1355083   8.686  10.564   2.208  0.3005  0.2232  0.5530
  400DOPC   O1455084   8.559  10.662   2.007  0.1500  0.2638 -0.5284
  400DOPC   O1255085   8.791  10.726   2.033 -0.4044  0.0870 -0.4536
  400DOPC   O1155086   8.645  10.805   2.198  0.3574 -0.2709  0.2783
  400DOPC    C155087   8.745  10.885   2.259 -0.3928  1.3499 -0.7428
  400DOPC    HA55088   8.697  10.959   2.326 -0.5913  1.2348 -0.7578
  400DOPC    HB55089   8.808  10.933   2.181 -0.7760  2.1815 -0.5493
  400DOPC    C255090   8.845  10.795   2.347 -0.2469  0.2120  0.5079
  400DOPC    HS55091   8.897  10.731   2.272 -0.1514 -0.1017  0.8400
  400DOPC   O2155092   8.765  10.714   2.432 -0.1729  0.4816 -0.2262
  400DOPC   C2155093   8.821  10.594   2.461  0.5162 -0.4505  0.1736
  400DOPC   O2255094   8.935  10.557   2.429 -0.0598  0.7734 -0.3593
  400DOPC   C2255095   8.711  10.512   2.521 -0.5247 -0.0171 -0.0973
  400DOPC   H2R55096   8.664  10.457   2.436  1.9071 -1.8107 -0.3858
  400DOPC   H2S55097   8.638  10.575   2.576 -3.0524 -4.1702  1.8738
  400DOPC    C355098   8.947  10.889   2.422  0.2977  0.3390 -0.6408
  400DOPC    HX55099   8.879  10.945   2.490  1.2268  1.5676 -0.6883
  400DOPC    HY55100   8.987  10.966   2.353  1.8975 -0.8450 -1.1142
  400DOPC   O3155101   9.046  10.815   2.498  0.4098 -0.4199 -0.1870
  400DOPC   C3155102   9.152  10.794   2.421 -0.1259 -0.5029  0.6916
  400DOPC   O3255103   9.166  10.825   2.303 -0.1654  0.0641 -0.1658
  400DOPC   C3255104   9.264  10.723   2.494  0.3235  0.0574  0.0875
  400DOPC   H2X55105   9.247  10.614   2.505  0.9704 -0.2199 -1.4248
  400DOPC   H2Y55106   9.355  10.743   2.434  0.4784 -0.8397  0.0060
  400DOPC   C2355107   8.780  10.409   2.615  0.4048  0.7015  0.3049
  400DOPC   H3R55108   8.848  10.448   2.694  2.2062 -1.6871  0.0224
  400DOPC   H3S55109   8.836  10.338   2.551 -1.6463 -0.0806 -0.7431
  400DOPC   C2455110   8.692  10.310   2.685  0.6111 -0.1739  0.3750
  400DOPC   H4R55111   8.612  10.272   2.617 -0.3126  1.8041  0.2776
  400DOPC   H4S55112   8.622  10.370   2.748  1.4016 -1.1977  2.3043
  400DOPC   C2555113   8.747  10.190   2.767 -0.1021  0.2892  0.5647
  400DOPC   H5R55114   8.785  10.116   2.693  0.5675 -0.0869  1.2831
  400DOPC   H5S55115   8.665  10.137   2.818  0.8729 -0.5723  1.2656
  400DOPC   C2655116   8.857  10.221   2.869 -0.3025 -0.1677  0.2086
  400DOPC   H6R55117   8.941  10.280   2.828  0.0885  0.5147  1.9202
  400DOPC   H6S55118   8.905  10.125   2.897  0.0305  0.1097  0.6000
  400DOPC   C2755119   8.804  10.298   2.989 -0.5196  1.0440 -0.6790
  400DOPC   H7R55120   8.748  10.392   2.966 -1.9454  0.2724 -0.4633
  400DOPC   H7S55121   8.889  10.334   3.052  1.4716 -3.0002 -0.7484
  400DOPC   C2855122   8.715  10.214   3.085  0.6660  0.0161  0.6569
  400DOPC   H8R55123   8.774  10.169   3.167 -2.5970 -0.6929  2.7951
  400DOPC   H8S55124   8.677  10.134   3.018 -1.4660  1.7662 -0.3712
  400DOPC   C2955125   8.590  10.269   3.146 -0.6825  0.1606  0.1683
  400DOPC   H9R55126   8.497  10.238   3.097  0.4646 -1.5077 -1.0719
  400DOPC  C21055127   8.577  10.331   3.268 -0.8806 -0.0990  0.7102
  400DOPC  H10R55128   8.486  10.388   3.293 -0.3173  1.6715 -1.0410
  400DOPC  C21155129   8.697  10.376   3.355  0.4326 -0.5025 -0.2771
  400DOPC  H11R55130   8.798  10.359   3.312  0.9280  0.7259  0.3419
  400DOPC  H11S55131   8.690  10.328   3.455 -2.7295  1.1242  0.4068
  400DOPC  C21255132   8.689  10.527   3.380  0.5137  0.5749 -0.3678
  400DOPC  H12R55133   8.755  10.549   3.467  1.4738  0.7690 -1.1377
  400DOPC  H12S55134   8.585  10.553   3.409  0.1848 -1.1359  0.1043
  400DOPC  C21355135   8.732  10.618   3.264 -0.2076  0.2213 -0.2781
  400DOPC  H13R55136   8.689  10.717   3.288 -0.4684  0.0415  0.0014
  400DOPC  H13S55137   8.684  10.580   3.171 -0.2053  0.0324 -0.2037
  400DOPC  C21455138   8.883  10.625   3.249 -0.4538 -0.0834 -0.4893
  400DOPC  H14R55139   8.934  10.528   3.227  2.1909  1.3466 -1.1305
  400DOPC  H14S55140   8.920  10.659   3.349 -1.0011 -0.7176 -0.0583
  400DOPC  C21555141   8.928  10.736   3.152  0.1472  0.7150 -0.4252
  400DOPC  H15R55142   9.036  10.762   3.145  0.1591  0.2882 -3.4317
  400DOPC  H15S55143   8.872  10.829   3.174  0.0021  0.9606 -1.7291
  400DOPC  C21655144   8.904  10.695   2.997 -0.5222 -0.3189  0.3474
  400DOPC  H16R55145   8.805  10.645   2.991 -0.3786 -0.6816  0.9988
  400DOPC  H16S55146   8.978  10.617   2.971  0.4288  0.0371  1.8912
  400DOPC  C21755147   8.912  10.819   2.907  0.6055  0.1594 -0.7127
  400DOPC  H17R55148   9.015  10.858   2.889  0.0347  1.4156 -1.3716
  400DOPC  H17S55149   8.859  10.901   2.961  0.4684 -0.0643 -0.5092
  400DOPC  C21855150   8.835  10.792   2.773 -0.0379 -0.7420 -0.0168
  400DOPC  H18R55151   8.904  10.736   2.707  0.8446 -1.7396  1.6620
  400DOPC  H18S55152   8.838  10.890   2.721  2.7975  0.1140  1.5340
  400DOPC  H18T55153   8.734  10.749   2.787  0.5123 -1.7603  1.0101
  400DOPC   C3355154   9.286  10.785   2.635 -0.4797  0.3064  0.2558
  400DOPC   H3X55155   9.198  10.751   2.693 -0.0370  1.9201  2.0056
  400DOPC   H3Y55156   9.285  10.896   2.625 -0.4311  0.1013 -2.6936
  400DOPC   C3455157   9.414  10.742   2.705 -0.7511  0.1741  0.7910
  400DOPC   H4X55158   9.495  10.749   2.629 -0.4580  3.3954  1.2649
  400DOPC   H4Y55159   9.412  10.634   2.732  1.7496  0.5301  2.8102
  400DOPC   C3555160   9.459  10.823   2.831  0.4303  0.2353 -0.1301
  400DOPC   H5X55161   9.437  10.929   2.807  0.2666  0.1062 -0.5610
  400DOPC   H5Y55162   9.567  10.807   2.849  0.1355 -3.1349 -0.7023
  400DOPC   C3655163   9.396  10.774   2.962  0.2772 -0.5649 -0.4951
  400DOPC   H6X55164   9.286  10.782   2.957  0.1821 -1.1703  0.3849
  400DOPC   H6Y55165   9.426  10.667   2.966  0.0284 -0.6246 -0.2292
  400DOPC   C3755166   9.454  10.844   3.091 -0.3575 -0.2121  0.0355
  400DOPC   H7X55167   9.416  10.790   3.180 -1.4776 -1.1160 -0.9627
  400DOPC   H7Y55168   9.564  10.840   3.078 -0.6539 -2.5013 -3.1590
  400DOPC   C3855169   9.416  10.990   3.116  0.1643 -0.0059 -0.0298
  400DOPC   H8X55170   9.465  11.056   3.041 -0.0886 -0.2840 -0.4433
  400DOPC   H8Y55171   9.472  11.022   3.206 -1.7037  1.4304  0.7101
  400DOPC   C3955172   9.269  11.021   3.140 -1.0256  0.3688  0.2661
  400DOPC   H9X55173   9.229  11.062   3.046  0.9760 -1.1697 -1.3451
  400DOPC  C31055174   9.184  10.978   3.234  0.5283  0.1482 -0.7189
  400DOPC  H10X55175   9.086  11.026   3.245 -0.4984 -1.9419 -0.1763
  400DOPC  C31155176   9.223  10.893   3.346 -0.4060  0.1190  0.8146
  400DOPC  H11X55177   9.331  10.868   3.339 -0.5450 -0.0713 -1.1569
  400DOPC  H11Y55178   9.158  10.803   3.340 -0.2544  0.0787 -0.6806
  400DOPC  C31255179   9.199  10.972   3.472 -0.5303  0.2717 -0.2413
  400DOPC  H12X55180   9.098  11.017   3.479  0.5747  2.7041  1.8380
  400DOPC  H12Y55181   9.271  11.057   3.465  0.5017 -0.3457  1.7899
  400DOPC  C31355182   9.215  10.897   3.606  0.0906  1.1416 -0.4763
  400DOPC  H13X55183   9.181  10.969   3.684 -0.4959 -2.0760  2.4723
  400DOPC  H13Y55184   9.142  10.815   3.618  1.3723 -0.0777 -0.8403
  400DOPC  C31455185   9.352  10.840   3.639 -0.1251  0.3411 -0.2596
  400DOPC  H14X55186   9.354  10.786   3.736 -0.6495  1.3155  0.3140
  400DOPC  H14Y55187   9.387  10.770   3.561  0.8350 -1.6309  1.8216
  400DOPC  C31555188   9.465  10.952   3.636  0.8256 -0.6213  0.2487
  400DOPC  H15X55189   9.493  10.970   3.530  0.8070  0.8201  0.4623
  400DOPC  H15Y55190   9.546  10.900   3.691  1.1926 -0.5232 -0.1985
  400DOPC  C31655191   9.426  11.090   3.707 -0.3004  0.0886 -0.3856
  400DOPC  H16X55192   9.516  11.154   3.707  0.8580 -1.4848 -0.0901
  400DOPC  H16Y55193   9.347  11.147   3.653  0.7125  1.2046 -0.7370
  400DOPC  C31755194   9.385  11.067   3.855 -0.2312 -0.5507  0.0901
  400DOPC  H17X55195   9.299  10.999   3.870  0.1568 -0.9441  0.5982
  400DOPC  H17Y55196   9.466  11.023   3.918 -0.1264 -0.9988 -0.3486
  400DOPC  C31855197   9.338  11.206   3.907  0.1273  0.2674  0.4681
  400DOPC  H18X55198   9.284  11.208   4.004  0.9824  1.1341  0.9447
  400DOPC  H18Y55199   9.414  11.287   3.914 -0.5989  1.0406 -0.3042
  400DOPC  H18Z55200   9.266  11.245   3.832 -0.5318  1.9056  1.8850
  401DOPC     N55201  12.176   1.810   1.865  0.1287  0.1832 -0.4372
  401DOPC   C1255202  12.158   1.670   1.809 -0.0113 -0.3704 -0.5655
  401DOPC  H12A55203  12.217   1.652   1.720  1.8896 -1.3021  0.8210
  401DOPC  H12B55204  12.054   1.652   1.788 -0.0271  0.1457 -0.9637
  401DOPC   C1355205  12.104   1.825   1.996  0.0230  0.1408  0.2564
  401DOPC  H13A55206  12.131   1.755   2.075  1.6352 -0.1782 -0.5194
  401DOPC  H13B55207  12.119   1.923   2.039  1.3073  0.8178 -1.6170
  401DOPC  H13C55208  11.998   1.820   1.981  0.0972  0.7837 -0.5476
  401DOPC   C1455209  12.111   1.902   1.773 -0.1833 -0.0346  0.0234
  401DOPC  H14A55210  12.121   1.869   1.671  2.2748 -0.0966  0.2361
  401DOPC  H14B55211  12.005   1.907   1.795 -1.0455 -3.3121 -2.6094
  401DOPC  H14C55212  12.161   1.997   1.779  1.2491 -0.7570  0.0204
  401DOPC   C1555213  12.320   1.855   1.879  0.2047 -0.6150 -0.2652
  401DOPC  H15A55214  12.374   1.801   1.956  0.4810  0.2256  0.1505
  401DOPC  H15B55215  12.341   1.956   1.912  0.0066 -0.9541  0.9496
  401DOPC  H15C55216  12.372   1.838   1.786  0.1649  1.1690 -0.6456
  401DOPC   C1155217  12.199   1.557   1.907  0.5903 -0.3328 -0.1909
  401DOPC  H11A55218  12.303   1.556   1.947  0.2462 -1.9578  0.7585
  401DOPC  H11B55219  12.137   1.557   1.999  0.1916  1.0936 -0.4381
  401DOPC     P55220  12.062   1.336   1.898 -0.0508  0.1526  0.1145
  401DOPC   O1355221  12.061   1.212   1.819  0.1381  0.2357 -0.5912
  401DOPC   O1455222  11.941   1.421   1.900  0.4650  0.6216 -0.9521
  401DOPC   O1255223  12.171   1.433   1.845 -0.2292 -0.2399  0.3847
  401DOPC   O1155224  12.093   1.306   2.051  0.3078 -0.0033  0.6844
  401DOPC    C155225  12.021   1.205   2.119 -0.7999 -0.3929 -0.8232
  401DOPC    HA55226  12.077   1.109   2.112  0.6186  0.3918 -0.4750
  401DOPC    HB55227  11.917   1.190   2.082 -1.3269 -0.5005  0.5990
  401DOPC    C255228  12.016   1.233   2.275  0.3428  0.6399  0.4106
  401DOPC    HS55229  11.964   1.330   2.292  1.6801  1.4953 -0.1590
  401DOPC   O2155230  12.142   1.233   2.334  0.0497 -0.3435 -0.1768
  401DOPC   C2155231  12.163   1.307   2.442  0.0816  1.0855 -0.1443
  401DOPC   O2255232  12.091   1.396   2.479 -0.1512  0.2225  0.7934
  401DOPC   C2255233  12.291   1.266   2.512 -0.2566  0.2351  0.3241
  401DOPC   H2R55234  12.355   1.357   2.505  0.6743 -0.4250  0.1099
  401DOPC   H2S55235  12.341   1.174   2.476  0.9618  1.0539 -0.1320
  401DOPC    C355236  11.919   1.120   2.334 -0.8097  0.1620 -0.0026
  401DOPC    HX55237  11.965   1.022   2.312 -0.8846  0.2242 -0.4545
  401DOPC    HY55238  11.816   1.120   2.292 -0.3330 -2.4188 -1.4045
  401DOPC   O3155239  11.923   1.137   2.477 -0.7960 -0.6439 -0.7060
  401DOPC   C3155240  11.835   1.222   2.530 -0.3672  0.4426  0.4945
  401DOPC   O3255241  11.752   1.282   2.465  0.5937 -0.4370 -0.1995
  401DOPC   C3255242  11.858   1.230   2.683  0.1082  0.1118 -0.4564
  401DOPC   H2X55243  11.759   1.201   2.726  0.3030  0.9310  0.5776
  401DOPC   H2Y55244  11.924   1.145   2.711 -2.4151 -2.0712 -0.6537
  401DOPC   C2355245  12.257   1.265   2.664  0.4899  0.3341  0.1440
  401DOPC   H3R55246  12.171   1.196   2.678  2.3282 -2.2023 -0.4219
  401DOPC   H3S55247  12.234   1.368   2.697  0.5646  0.2906  0.3365
  401DOPC   C2455248  12.381   1.229   2.752 -0.1629  0.7858 -0.3831
  401DOPC   H4R55249  12.474   1.278   2.715 -0.2686  0.5848 -0.9278
  401DOPC   H4S55250  12.398   1.120   2.741  2.8612  1.3051 -1.9035
  401DOPC   C2555251  12.356   1.263   2.902  0.8944 -0.2105  0.0404
  401DOPC   H5R55252  12.260   1.210   2.921 -0.0029  1.3129 -0.1136
  401DOPC   H5S55253  12.356   1.373   2.919  0.6387 -0.2414  0.2392
  401DOPC   C2655254  12.468   1.193   3.001  0.6040  0.8211 -0.2548
  401DOPC   H6R55255  12.563   1.224   2.954 -0.7274  2.8196 -1.8409
  401DOPC   H6S55256  12.458   1.082   3.005  2.2847  0.6756  0.9109
  401DOPC   C2755257  12.489   1.251   3.144  0.0205  0.4536  0.3382
  401DOPC   H7R55258  12.388   1.270   3.186 -0.7444 -0.3151 -1.0915
  401DOPC   H7S55259  12.530   1.353   3.132 -0.2575  0.5160 -0.1119
  401DOPC   C2855260  12.579   1.168   3.228  0.0190  0.1954 -0.2068
  401DOPC   H8R55261  12.676   1.157   3.176 -0.1352 -0.9376 -0.2792
  401DOPC   H8S55262  12.536   1.066   3.234  0.6685 -0.0684  0.0695
  401DOPC   C2955263  12.615   1.220   3.365  0.0078 -0.1838 -0.1598
  401DOPC   H9R55264  12.660   1.321   3.366  1.4597 -0.8038 -0.4255
  401DOPC  C21055265  12.591   1.176   3.494  0.4599 -0.5531  0.8858
  401DOPC  H10R55266  12.635   1.237   3.573 -2.0377  1.0978  1.1265
  401DOPC  C21155267  12.522   1.051   3.542  0.1786  0.0133  0.8942
  401DOPC  H11R55268  12.508   0.981   3.456  0.4800  1.1511 -0.1032
  401DOPC  H11S55269  12.585   0.990   3.610 -0.2740 -0.1229  1.1899
  401DOPC  C21255270  12.373   1.063   3.584  0.2033 -0.1899  0.2164
  401DOPC  H12R55271  12.326   1.144   3.524  1.2378 -0.9096 -1.6379
  401DOPC  H12S55272  12.378   1.091   3.692  0.1236  0.6841  0.0011
  401DOPC  C21355273  12.282   0.937   3.565 -0.1931 -0.2843 -0.1577
  401DOPC  H13R55274  12.340   0.856   3.615  0.5848  0.8669  0.8793
  401DOPC  H13S55275  12.285   0.914   3.456 -0.0065  0.0017 -0.2173
  401DOPC  C21455276  12.138   0.957   3.616 -0.7673  0.3157 -0.2900
  401DOPC  H14R55277  12.160   0.959   3.725 -1.7347  1.0696 -0.0902
  401DOPC  H14S55278  12.073   0.868   3.605 -1.1775  0.4515  0.8875
  401DOPC  C21555279  12.060   1.083   3.572 -0.1043 -0.1036 -0.4682
  401DOPC  H15R55280  12.104   1.179   3.607 -0.2848 -0.0165 -0.4793
  401DOPC  H15S55281  11.964   1.096   3.627  0.7739  2.2472  0.6494
  401DOPC  C21655282  12.038   1.087   3.417  0.2753 -0.9354 -0.6362
  401DOPC  H16R55283  11.930   1.091   3.390 -0.2035 -0.3469  1.1946
  401DOPC  H16S55284  12.082   0.998   3.366 -0.3493 -0.4945 -1.9934
  401DOPC  C21755285  12.090   1.215   3.357  0.1104  0.4516 -0.5127
  401DOPC  H17R55286  12.188   1.238   3.403 -0.5286  3.5728 -0.4993
  401DOPC  H17S55287  12.014   1.294   3.376  0.3303  0.3104  1.0425
  401DOPC  C21855288  12.113   1.199   3.212  0.4810 -0.0296  0.4754
  401DOPC  H18R55289  12.191   1.122   3.198 -0.5574 -1.1669  0.8057
  401DOPC  H18S55290  12.156   1.295   3.175  0.4026 -0.0414  0.3535
  401DOPC  H18T55291  12.011   1.188   3.170  0.3978  2.5107 -0.1582
  401DOPC   C3355292  11.894   1.374   2.726  0.1098 -0.0777  0.4531
  401DOPC   H3X55293  11.804   1.438   2.737  0.3109 -0.0291  2.2838
  401DOPC   H3Y55294  11.954   1.423   2.646  0.6068  0.2102  0.9925
  401DOPC   C3455295  11.971   1.379   2.858  0.2294  0.2941 -0.7792
  401DOPC   H4X55296  12.049   1.300   2.866  0.6522  0.8202  0.4180
  401DOPC   H4Y55297  11.901   1.362   2.943 -0.0203  0.9725 -0.8410
  401DOPC   C3555298  12.034   1.512   2.882  0.3209 -0.3553 -0.1809
  401DOPC   H5X55299  11.965   1.598   2.866 -2.3818 -2.4227 -0.3731
  401DOPC   H5Y55300  12.107   1.521   2.799 -0.7161  1.8079 -0.9488
  401DOPC   C3655301  12.108   1.526   3.013 -0.2354  0.1910  0.0153
  401DOPC   H6X55302  12.034   1.556   3.091  0.7552 -1.2802  1.5929
  401DOPC   H6Y55303  12.167   1.433   3.027  1.2832  0.9221 -1.2098
  401DOPC   C3755304  12.219   1.630   3.018  0.8940 -0.1227 -0.0539
  401DOPC   H7X55305  12.292   1.613   2.936  0.4966 -1.4844 -0.1472
  401DOPC   H7Y55306  12.169   1.728   3.005 -0.3044 -0.7846 -0.5840
  401DOPC   C3855307  12.311   1.622   3.138  0.3620  0.3408 -0.7544
  401DOPC   H8X55308  12.378   1.706   3.111  0.7207  0.1240 -0.5376
  401DOPC   H8Y55309  12.361   1.523   3.148  1.3631  0.8464 -0.6620
  401DOPC   C3955310  12.244   1.661   3.270 -0.7683  0.4637  0.0745
  401DOPC   H9X55311  12.174   1.745   3.257  1.2660  2.2979  0.4069
  401DOPC  C31055312  12.255   1.612   3.394 -0.0195  0.0029 -0.1315
  401DOPC  H10X55313  12.187   1.654   3.470  0.2840 -1.8491  1.2332
  401DOPC  C31155314  12.347   1.502   3.442 -0.1697 -0.1989 -0.4365
  401DOPC  H11X55315  12.452   1.501   3.405  0.2727  0.7122  0.7160
  401DOPC  H11Y55316  12.309   1.400   3.420  2.1406 -1.3776  0.6261
  401DOPC  C31255317  12.366   1.513   3.598 -0.2910  0.2771 -0.4741
  401DOPC  H12X55318  12.436   1.431   3.625  1.3669  1.5323 -0.7957
  401DOPC  H12Y55319  12.274   1.500   3.659  0.5171  1.0626  0.9876
  401DOPC  C31355320  12.439   1.644   3.637 -0.4206  0.6551  0.3240
  401DOPC  H13X55321  12.529   1.658   3.573  0.4932 -3.2109  0.5650
  401DOPC  H13Y55322  12.362   1.722   3.618 -0.5091  0.2336 -1.1504
  401DOPC  C31455323  12.482   1.651   3.785  0.4743 -0.1882 -0.9940
  401DOPC  H14X55324  12.509   1.758   3.794 -1.6010  0.2841  0.3609
  401DOPC  H14Y55325  12.382   1.636   3.833  0.6516  0.8921 -0.2257
  401DOPC  C31555326  12.592   1.556   3.840  0.5495  0.2973  0.2009
  401DOPC  H15X55327  12.672   1.556   3.763 -1.6321  3.1961 -2.3136
  401DOPC  H15Y55328  12.539   1.460   3.858  2.0963 -0.3811  1.4496
  401DOPC  C31655329  12.636   1.592   3.977  0.1654 -0.4651  0.1204
  401DOPC  H16X55330  12.686   1.692   3.976  2.2648 -1.4575 -0.8602
  401DOPC  H16Y55331  12.547   1.604   4.043 -1.0028 -0.0914 -1.4618
  401DOPC  C31755332  12.746   1.504   4.025 -0.2186  0.7932  0.0764
  401DOPC  H17X55333  12.744   1.419   3.952 -1.4208  1.2064 -0.4066
  401DOPC  H17Y55334  12.850   1.540   4.012  0.8558 -0.8815  3.0459
  401DOPC  C31855335  12.731   1.445   4.165  0.2253 -0.5698 -0.0901
  401DOPC  H18X55336  12.633   1.398   4.187 -0.5761  1.2123  0.3263
  401DOPC  H18Y55337  12.810   1.369   4.184 -0.5550 -1.1960  0.6950
  401DOPC  H18Z55338  12.747   1.527   4.238 -0.2993 -0.1028 -0.4972
  402DOPC     N55339   1.641  11.786   2.140  0.1241  0.5417 -0.1010
  402DOPC   C1255340   1.734  11.821   2.255  0.9510 -1.0243 -0.2168
  402DOPC  H12A55341   1.836  11.821   2.220  1.1999  1.8615  0.2688
  402DOPC  H12B55342   1.735  11.742   2.329  2.3360 -1.1486 -0.3300
  402DOPC   C1355343   1.501  11.822   2.179  0.7260  0.3771 -0.1474
  402DOPC  H13A55344   1.468  11.767   2.266 -0.8704 -1.6226 -1.9263
  402DOPC  H13B55345   1.497  11.928   2.201  0.9924  0.4700 -0.5423
  402DOPC  H13C55346   1.428  11.802   2.102  1.1299  0.5902 -0.5914
  402DOPC   C1455347   1.646  11.643   2.101 -0.2985  0.8269 -0.7121
  402DOPC  H14A55348   1.643  11.571   2.182 -2.2650  0.2538 -1.2416
  402DOPC  H14B55349   1.564  11.627   2.032  0.7996 -2.2315 -1.4517
  402DOPC  H14C55350   1.731  11.626   2.038  0.0379  0.4060 -0.1605
  402DOPC   C1555351   1.670  11.880   2.024 -0.0936 -0.5684  0.3369
  402DOPC  H15A55352   1.655  11.980   2.064 -1.1175 -0.6333  0.1444
  402DOPC  H15B55353   1.595  11.867   1.947  0.1031 -2.5870  0.4265
  402DOPC  H15C55354   1.767  11.870   1.978 -0.0667  1.5709 -0.1912
  402DOPC   C1155355   1.696  11.953   2.330 -0.6591  0.3651  0.1536
  402DOPC  H11A55356   1.609  11.935   2.397  1.3053  0.1426  2.8295
  402DOPC  H11B55357   1.777  11.964   2.405  0.7400 -1.7807 -0.9558
  402DOPC     P55358   1.568  12.172   2.286 -0.0791  0.1998  0.1093
  402DOPC   O1355359   1.443  12.115   2.228 -0.4046 -0.5059 -0.2894
  402DOPC   O1455360   1.606  12.304   2.233  0.3274 -0.2612  0.1584
  402DOPC   O1255361   1.684  12.071   2.247  0.1172  0.0045 -0.0727
  402DOPC   O1155362   1.560  12.166   2.450 -0.5919 -0.0652  0.1028
  402DOPC    C155363   1.612  12.264   2.530  0.3718  0.0183  0.4989
  402DOPC    HA55364   1.529  12.323   2.574  1.3155  2.8478 -1.2170
  402DOPC    HB55365   1.681  12.334   2.477 -1.0791  0.1658 -1.2957
  402DOPC    C255366   1.699  12.211   2.650  0.2408  0.1301  0.7881
  402DOPC    HS55367   1.792  12.169   2.606 -0.0080 -0.4541  0.8077
  402DOPC   O2155368   1.624  12.116   2.718  0.6730 -0.9847  0.0851
  402DOPC   C2155369   1.692  12.023   2.778  0.1424 -0.6128  0.4845
  402DOPC   O2255370   1.810  12.010   2.788 -0.4836  0.0308  0.0273
  402DOPC   C2255371   1.596  11.936   2.846 -0.1106  0.5402  0.4265
  402DOPC   H2R55372   1.621  11.829   2.827 -1.0799  0.3232  0.3221
  402DOPC   H2S55373   1.498  11.958   2.798  0.0841  1.4637  0.4375
  402DOPC    C355374   1.741  12.332   2.733 -0.8235  0.0295  0.3416
  402DOPC    HX55375   1.645  12.377   2.768 -0.7769 -2.2315  3.9870
  402DOPC    HY55376   1.788  12.407   2.666  1.8103 -0.4644  1.4970
  402DOPC   O3155377   1.840  12.307   2.837  0.3715 -0.2713  0.1813
  402DOPC   C3155378   1.962  12.293   2.788 -0.1163  0.4199 -0.0928
  402DOPC   O3255379   1.995  12.292   2.670  0.4760  0.1112 -0.4944
  402DOPC   C3255380   2.066  12.272   2.900  0.1772  0.0730 -0.4920
  402DOPC   H2X55381   2.126  12.181   2.878  1.0994  0.1995  1.3809
  402DOPC   H2Y55382   2.134  12.359   2.909 -0.9838  0.8078  2.2927
  402DOPC   C2355383   1.579  11.951   2.998 -0.2444  0.0741  0.4225
  402DOPC   H3R55384   1.581  12.062   3.008  3.6511  0.2961 -0.8431
  402DOPC   H3S55385   1.665  11.905   3.051 -1.2769 -2.1818  0.2486
  402DOPC   C2455386   1.450  11.890   3.062 -0.8012 -0.3318  0.5660
  402DOPC   H4R55387   1.441  11.781   3.043  1.8291 -0.8950  2.1240
  402DOPC   H4S55388   1.359  11.936   3.017 -1.4723 -1.9319  0.2068
  402DOPC   C2555389   1.446  11.909   3.211  0.3062  0.1737 -0.2761
  402DOPC   H5R55390   1.456  12.017   3.234 -0.7037 -0.2221  2.3620
  402DOPC   H5S55391   1.531  11.862   3.264  1.2317  1.7834 -0.2855
  402DOPC   C2655392   1.310  11.855   3.262  0.6239 -0.1084 -0.5519
  402DOPC   H6R55393   1.311  11.750   3.224 -0.2669  0.7790 -3.2602
  402DOPC   H6S55394   1.220  11.903   3.217  1.0372 -0.9538 -2.3678
  402DOPC   C2755395   1.311  11.863   3.416 -0.0406 -0.2381 -0.4132
  402DOPC   H7R55396   1.301  11.967   3.453 -1.5476  0.1898 -1.8944
  402DOPC   H7S55397   1.406  11.831   3.464 -1.0471  0.1289  1.9411
  402DOPC   C2855398   1.193  11.789   3.488  0.2535 -0.5437  0.2534
  402DOPC   H8R55399   1.110  11.804   3.415  0.2631  0.1768  0.3838
  402DOPC   H8S55400   1.171  11.826   3.590  0.3110 -0.5301  0.2606
  402DOPC   C2955401   1.232  11.649   3.507  0.1209 -0.0111 -0.2737
  402DOPC   H9R55402   1.301  11.632   3.591 -1.4918 -1.4964  0.8178
  402DOPC  C21055403   1.187  11.542   3.439 -0.2589  0.4873 -0.4189
  402DOPC  H10R55404   1.246  11.449   3.440 -3.5679 -1.7966  0.0230
  402DOPC  C21155405   1.083  11.539   3.324 -0.5267  0.9755 -0.4407
  402DOPC  H11R55406   1.128  11.534   3.223 -0.8807 -1.5878 -0.5218
  402DOPC  H11S55407   1.036  11.640   3.316 -1.1882  0.5902 -1.6775
  402DOPC  C21255408   0.977  11.425   3.341 -0.3411  0.0046 -0.2567
  402DOPC  H12R55409   0.943  11.422   3.447 -1.7565  1.4416 -0.6196
  402DOPC  H12S55410   1.033  11.331   3.324 -2.0716 -1.2385  0.6611
  402DOPC  C21355411   0.862  11.450   3.238 -0.0018  0.3826  0.0177
  402DOPC  H13R55412   0.783  11.373   3.243  0.6664 -0.2683  1.0423
  402DOPC  H13S55413   0.913  11.449   3.140 -2.1626  0.0004 -1.1579
  402DOPC  C21455414   0.788  11.579   3.257  0.2864 -0.0876  0.9917
  402DOPC  H14R55415   0.850  11.659   3.212 -0.5909  0.3268  0.4925
  402DOPC  H14S55416   0.778  11.596   3.366 -2.3210 -0.0420  0.8123
  402DOPC  C21555417   0.652  11.581   3.185  0.6322  0.2713 -0.7919
  402DOPC  H15R55418   0.585  11.504   3.231  2.9702 -2.7079 -2.0281
  402DOPC  H15S55419   0.665  11.547   3.080  0.1072 -0.0157 -0.7688
  402DOPC  C21655420   0.594  11.721   3.183  0.0708 -0.0692 -0.1752
  402DOPC  H16R55421   0.656  11.788   3.118 -3.5300  0.3367 -3.5483
  402DOPC  H16S55422   0.586  11.754   3.288  0.3989 -0.3054 -0.0741
  402DOPC  C21755423   0.454  11.729   3.115 -0.1739 -0.2991  0.0284
  402DOPC  H17R55424   0.468  11.728   3.005 -3.2312 -1.4324 -0.4452
  402DOPC  H17S55425   0.418  11.834   3.123 -0.4041 -0.3152 -0.6890
  402DOPC  C21855426   0.341  11.631   3.159 -0.3140 -0.2545  0.0945
  402DOPC  H18R55427   0.312  11.660   3.262 -0.9611  1.3155 -0.4918
  402DOPC  H18S55428   0.387  11.531   3.151  0.7616 -0.0167  2.5293
  402DOPC  H18T55429   0.249  11.635   3.096  0.8544 -2.2376 -1.8980
  402DOPC   C3355430   2.006  12.266   3.042 -0.0965  0.6291  0.0769
  402DOPC   H3X55431   1.917  12.199   3.046 -0.1746  0.7111 -0.3249
  402DOPC   H3Y55432   1.973  12.365   3.082 -1.6403  0.7614 -1.4265
  402DOPC   C3455433   2.102  12.212   3.156  0.8146  0.1745  0.2827
  402DOPC   H4X55434   2.197  12.270   3.156  0.8590  0.1398 -0.9117
  402DOPC   H4Y55435   2.129  12.116   3.106 -0.3863 -0.0702  0.0798
  402DOPC   C3555436   2.043  12.193   3.299 -0.1691  0.0067  0.6828
  402DOPC   H5X55437   1.971  12.108   3.302  0.4223 -0.7804 -2.6568
  402DOPC   H5Y55438   1.993  12.289   3.323  1.4654  0.9460  0.4450
  402DOPC   C3655439   2.150  12.181   3.415 -0.5853  0.0950 -0.3698
  402DOPC   H6X55440   2.185  12.075   3.417  2.4174  0.8995  3.7616
  402DOPC   H6Y55441   2.238  12.244   3.393 -0.7942  0.4982 -0.0667
  402DOPC   C3755442   2.094  12.208   3.554  0.1885  0.5542  0.4013
  402DOPC   H7X55443   2.045  12.307   3.551 -0.2851  0.3088 -0.2226
  402DOPC   H7Y55444   2.014  12.133   3.571  0.7393  0.2982  2.0733
  402DOPC   C3855445   2.192  12.183   3.670 -0.6694  0.3102  0.3516
  402DOPC   H8X55446   2.283  12.240   3.642 -0.5537 -0.1793 -0.2996
  402DOPC   H8Y55447   2.230  12.079   3.661  0.6947  0.9521 -2.4056
  402DOPC   C3955448   2.134  12.223   3.808 -0.1099 -0.3485 -0.1421
  402DOPC   H9X55449   2.052  12.155   3.836 -0.1573 -0.1113  0.3001
  402DOPC  C31055450   2.165  12.332   3.875  0.4169 -0.5805 -0.4039
  402DOPC  H10X55451   2.100  12.358   3.960 -2.3968 -0.4250 -2.4371
  402DOPC  C31155452   2.268  12.441   3.863 -0.4235 -0.2788 -0.2575
  402DOPC  H11X55453   2.217  12.539   3.851  1.5166  0.6181 -1.8182
  402DOPC  H11Y55454   2.327  12.428   3.769 -0.2325 -0.5193 -0.1047
  402DOPC  C31255455   2.367  12.443   3.981  0.2064 -0.5060 -0.1209
  402DOPC  H12X55456   2.312  12.449   4.078  1.7240  0.2435  0.7234
  402DOPC  H12Y55457   2.416  12.541   3.964 -2.2558  0.9177  0.5349
  402DOPC  C31355458   2.470  12.334   3.995 -0.1567  0.3211 -0.3903
  402DOPC  H13X55459   2.421  12.236   4.010  1.3926 -0.6566 -1.4451
  402DOPC  H13Y55460   2.518  12.315   3.897 -2.0582 -0.2014 -1.2772
  402DOPC  C31455461   2.580  12.343   4.099 -0.3569  0.3271  0.3280
  402DOPC  H14X55462   2.640  12.249   4.089 -0.7188  0.3141 -2.6466
  402DOPC  H14Y55463   2.635  12.436   4.072 -1.2655  0.7695 -0.0176
  402DOPC  C31555464   2.540  12.360   4.246  0.5048 -0.1250  0.0976
  402DOPC  H15X55465   2.477  12.269   4.258  0.6563 -0.1953  0.3519
  402DOPC  H15Y55466   2.463  12.438   4.264  1.1973  0.1250  2.2023
  402DOPC  C31655467   2.658  12.377   4.344  0.0789  0.2922 -0.3895
  402DOPC  H16X55468   2.742  12.316   4.304  0.4661 -0.8749  2.0137
  402DOPC  H16Y55469   2.687  12.483   4.328  1.0429  0.2538  0.9572
  402DOPC  C31755470   2.631  12.353   4.497  0.5262 -1.2923 -0.0048
  402DOPC  H17X55471   2.713  12.380   4.567 -0.2681  1.5633 -0.0861
  402DOPC  H17Y55472   2.552  12.429   4.513  0.7788 -0.4281 -2.4721
  402DOPC  C31855473   2.581  12.227   4.543  0.3545  0.6054 -0.3582
  402DOPC  H18X55474   2.523  12.218   4.637  0.6573 -2.6241 -0.3642
  402DOPC  H18Y55475   2.498  12.183   4.484 -1.0138  0.7596  1.3537
  402DOPC  H18Z55476   2.658  12.147   4.534  0.1517  0.3933 -0.2176
  403DOPC     N55477   7.990  10.981   1.849  0.5002 -0.3365  0.4145
  403DOPC   C1255478   7.981  10.877   1.954 -0.0549  0.2115 -0.1393
  403DOPC  H12A55479   7.923  10.795   1.915  0.3082  0.2579 -0.7895
  403DOPC  H12B55480   7.918  10.912   2.034 -0.0144 -1.3965  0.6377
  403DOPC   C1355481   8.085  10.936   1.735 -0.4049  0.0038 -0.4654
  403DOPC  H13A55482   8.057  10.834   1.713 -3.0958  0.3944  0.6711
  403DOPC  H13B55483   8.062  10.999   1.651 -1.3401  1.6587  0.9594
  403DOPC  H13C55484   8.188  10.943   1.767 -1.2799  0.5558  2.5579
  403DOPC   C1455485   8.029  11.116   1.907  0.5021 -0.1600 -0.6369
  403DOPC  H14A55486   8.035  11.185   1.823  3.3240 -1.2048 -1.3926
  403DOPC  H14B55487   7.957  11.153   1.979  0.1099  2.2626 -2.1189
  403DOPC  H14C55488   8.124  11.125   1.956  0.0100  1.3336  0.1200
  403DOPC   C1555489   7.850  10.991   1.790  0.0039  0.4145  1.0766
  403DOPC  H15A55490   7.827  10.903   1.732  1.5596 -1.1890  2.7559
  403DOPC  H15B55491   7.847  11.067   1.713 -0.9642 -0.9951 -0.3244
  403DOPC  H15C55492   7.782  11.030   1.864  0.4844  3.6022  0.0242
  403DOPC   C1155493   8.103  10.825   2.026  0.0572 -0.1643 -0.2938
  403DOPC  H11A55494   8.167  10.909   2.060  0.1489 -0.4630  0.2849
  403DOPC  H11B55495   8.070  10.762   2.112 -0.2216 -1.8380 -1.5678
  403DOPC     P55496   8.131  10.599   1.894 -0.3863 -0.0954 -0.3698
  403DOPC   O1355497   8.237  10.542   1.809 -0.5699  0.0198 -0.4020
  403DOPC   O1455498   7.997  10.593   1.843 -0.0682  0.1246 -0.1164
  403DOPC   O1255499   8.172  10.744   1.933 -0.4143 -0.0408  0.1449
  403DOPC   O1155500   8.140  10.517   2.026  0.6353 -0.3305 -0.3650
  403DOPC    C155501   8.263  10.536   2.107 -0.3199 -0.2113  0.5616
  403DOPC    HA55502   8.294  10.643   2.105 -1.8131  0.2290 -0.8249
  403DOPC    HB55503   8.344  10.475   2.062 -0.6039  1.6315 -2.7161
  403DOPC    C255504   8.242  10.499   2.257 -0.3412 -0.7974 -0.0898
  403DOPC    HS55505   8.206  10.394   2.258 -0.4869 -0.7648  2.0595
  403DOPC   O2155506   8.154  10.596   2.317  0.3858  0.7655  0.3964
  403DOPC   C2155507   8.025  10.567   2.331 -0.0012  0.4075 -0.1189
  403DOPC   O2255508   7.970  10.468   2.295 -0.1649  0.7015  0.8841
  403DOPC   C2255509   7.965  10.684   2.399  0.3424 -0.5544 -0.3849
  403DOPC   H2R55510   7.854  10.686   2.394  0.2427  3.5551 -0.1749
  403DOPC   H2S55511   7.990  10.777   2.343 -1.0283  0.5030  0.6769
  403DOPC    C355512   8.375  10.499   2.342 -0.3387 -0.2344  0.3513
  403DOPC    HX55513   8.430  10.595   2.331  0.9686 -0.6281  2.8136
  403DOPC    HY55514   8.448  10.424   2.306 -1.9299 -2.8710  2.2735
  403DOPC   O3155515   8.361  10.476   2.485 -0.4688 -0.6021 -0.2079
  403DOPC   C3155516   8.275  10.392   2.536  0.1406  0.3181 -0.1504
  403DOPC   O3255517   8.218  10.302   2.473 -0.2099 -0.2293 -0.0496
  403DOPC   C3255518   8.268  10.419   2.682  0.3023  0.0149 -0.4662
  403DOPC   H2X55519   8.360  10.367   2.716  1.0848  0.3989 -1.9174
  403DOPC   H2Y55520   8.295  10.523   2.713 -1.4728  0.4606 -0.3192
  403DOPC   C2355521   8.010  10.711   2.548 -0.4459 -0.2085 -0.8540
  403DOPC   H3R55522   8.068  10.805   2.553 -3.2349  1.6341 -0.4298
  403DOPC   H3S55523   8.073  10.627   2.584 -1.1425 -1.0271 -1.4894
  403DOPC   C2455524   7.888  10.729   2.637 -0.3670  0.0047  0.5840
  403DOPC   H4R55525   7.826  10.638   2.622 -1.6356  0.6912  1.4084
  403DOPC   H4S55526   7.835  10.821   2.605 -1.2858 -0.1504  1.5872
  403DOPC   C2555527   7.938  10.734   2.785 -0.1317 -0.2101 -0.8752
  403DOPC   H5R55528   8.021  10.808   2.795  0.2895 -0.9491  1.6327
  403DOPC   H5S55529   7.983  10.637   2.816 -0.8716 -0.6000 -1.0080
  403DOPC   C2655530   7.815  10.773   2.877  0.7484 -0.3890  0.9075
  403DOPC   H6R55531   7.752  10.683   2.893 -2.1223  1.3347  0.0302
  403DOPC   H6S55532   7.743  10.834   2.818 -0.4118 -2.5864 -0.0714
  403DOPC   C2755533   7.849  10.827   3.015  1.2114  0.0560 -0.0938
  403DOPC   H7R55534   7.752  10.845   3.066  0.8986 -3.3031  0.7837
  403DOPC   H7S55535   7.896  10.926   2.998  2.0880 -0.5951 -1.6579
  403DOPC   C2855536   7.944  10.752   3.109 -0.2549 -0.0376  0.9721
  403DOPC   H8R55537   7.963  10.812   3.200 -0.8037  2.2125 -0.3305
  403DOPC   H8S55538   8.044  10.744   3.060 -0.0955  0.7033  1.1614
  403DOPC   C2955539   7.901  10.611   3.138  0.0697 -0.7539  0.1434
  403DOPC   H9R55540   7.949  10.539   3.069 -0.7421 -0.8126 -0.3646
  403DOPC  C21055541   7.821  10.557   3.236 -0.6295 -0.3556  0.0659
  403DOPC  H10R55542   7.822  10.448   3.245  0.5462 -0.4008 -0.5370
  403DOPC  C21155543   7.779  10.632   3.351  0.2608 -0.2516 -0.4926
  403DOPC  H11R55544   7.743  10.736   3.332  0.7554  0.3536  1.5224
  403DOPC  H11S55545   7.869  10.647   3.415 -0.2801 -2.3204  0.8462
  403DOPC  C21255546   7.679  10.554   3.437  0.1210  0.0761 -0.4856
  403DOPC  H12R55547   7.707  10.446   3.443 -0.4258 -0.0198  3.2495
  403DOPC  H12S55548   7.586  10.561   3.377 -1.4575 -0.3059  1.7669
  403DOPC  C21355549   7.656  10.601   3.580  0.3152  0.2227 -0.1637
  403DOPC  H13R55550   7.650  10.712   3.579 -0.5283  0.2099  0.9340
  403DOPC  H13S55551   7.752  10.590   3.636  0.5840 -2.0696 -0.9542
  403DOPC  C21455552   7.526  10.537   3.633  0.0697  1.2512 -0.0326
  403DOPC  H14R55553   7.542  10.428   3.618  1.3292  1.5715 -1.2381
  403DOPC  H14S55554   7.439  10.558   3.568  0.3706 -0.4588 -1.0588
  403DOPC  C21555555   7.494  10.572   3.785 -0.4928 -0.1200 -0.5599
  403DOPC  H15R55556   7.593  10.586   3.834 -1.6008 -0.6741  2.0400
  403DOPC  H15S55557   7.439  10.488   3.833 -0.6287  0.4286  0.2824
  403DOPC  C21655558   7.407  10.701   3.803  0.0780 -0.1511 -0.6072
  403DOPC  H16R55559   7.328  10.695   3.724  0.5850 -1.5365 -1.0330
  403DOPC  H16S55560   7.481  10.778   3.773  0.4535 -0.0803  0.4682
  403DOPC  C21755561   7.351  10.712   3.942 -0.0581 -0.6333  0.2239
  403DOPC  H17R55562   7.433  10.711   4.017 -0.8871 -2.3663  1.1621
  403DOPC  H17S55563   7.288  10.622   3.957  1.3887 -1.6970  0.1692
  403DOPC  C21855564   7.261  10.839   3.956  0.2045 -0.8255 -0.5217
  403DOPC  H18R55565   7.210  10.846   4.054 -2.7247 -0.6788 -1.9690
  403DOPC  H18S55566   7.188  10.844   3.873 -2.9744  1.5406  2.1458
  403DOPC  H18T55567   7.329  10.927   3.957 -0.4657 -0.3001 -0.5764
  403DOPC   C3355568   8.155  10.355   2.758 -0.4094  0.2280 -0.1453
  403DOPC   H3X55569   8.131  10.249   2.735 -0.1705  0.0483  0.4334
  403DOPC   H3Y55570   8.060  10.407   2.732 -2.5201 -2.8098  0.8525
  403DOPC   C3455571   8.174  10.370   2.913  0.7082  0.0306  1.0534
  403DOPC   H4X55572   8.152  10.475   2.943  1.2945  0.0730  1.3568
  403DOPC   H4Y55573   8.282  10.360   2.937  1.1901  1.7101 -0.2318
  403DOPC   C3555574   8.087  10.281   3.007  0.1212  0.1404 -0.4798
  403DOPC   H5X55575   8.100  10.172   2.990 -0.0522 -0.1507  1.1631
  403DOPC   H5Y55576   7.979  10.308   3.003 -0.0775 -0.1284  1.8835
  403DOPC   C3655577   8.114  10.307   3.158  0.3289  1.1194 -0.5790
  403DOPC   H6X55578   8.223  10.303   3.180  0.1026  1.1731  0.5934
  403DOPC   H6Y55579   8.086  10.408   3.194 -0.1258  0.3645  1.2956
  403DOPC   C3755580   8.044  10.204   3.247 -0.1269 -0.2516 -0.0748
  403DOPC   H7X55581   7.934  10.214   3.235 -0.0016 -0.6728 -1.8652
  403DOPC   H7Y55582   8.063  10.099   3.216  0.6796 -0.4263  0.9550
  403DOPC   C3855583   8.090  10.221   3.393  0.7711  0.1214 -0.4414
  403DOPC   H8X55584   8.054  10.318   3.433  1.6114 -0.7672  2.8289
  403DOPC   H8Y55585   8.200  10.238   3.383  0.4299  1.9881 -1.4646
  403DOPC   C3955586   8.054  10.115   3.494  0.7588  0.6970 -0.1941
  403DOPC   H9X55587   8.095  10.018   3.465 -0.9241 -0.1913  0.2738
  403DOPC  C31055588   7.994  10.133   3.615 -0.5826  0.2107  0.1582
  403DOPC  H10X55589   7.995  10.050   3.687  1.6843  1.2169  1.4004
  403DOPC  C31155590   7.929  10.259   3.670  0.6064  0.3761 -0.1006
  403DOPC  H11X55591   7.944  10.343   3.599 -0.5860 -0.5190 -1.4824
  403DOPC  H11Y55592   7.976  10.290   3.766  0.5822  0.2424 -0.0449
  403DOPC  C31255593   7.776  10.275   3.707 -0.5858  0.1840  0.1081
  403DOPC  H12X55594   7.723  10.236   3.617  0.9298 -2.4796  0.2936
  403DOPC  H12Y55595   7.757  10.383   3.726 -0.7064 -0.1309  1.8737
  403DOPC  C31355596   7.742  10.190   3.825  0.4485 -0.4883  0.8567
  403DOPC  H13X55597   7.748  10.084   3.794  0.8915 -0.7547  1.8152
  403DOPC  H13Y55598   7.807  10.199   3.914  1.5210 -1.0505  0.1498
  403DOPC  C31455599   7.597  10.203   3.864  0.5707  0.1996  0.2364
  403DOPC  H14X55600   7.570  10.310   3.882 -1.4440  0.1495 -1.9824
  403DOPC  H14Y55601   7.537  10.163   3.780  0.6722 -2.3178  1.2747
  403DOPC  C31555602   7.564  10.123   3.988  0.4500 -0.3220  0.1216
  403DOPC  H15X55603   7.634  10.146   4.071  0.2734  1.9544 -0.3130
  403DOPC  H15Y55604   7.577  10.019   3.948  1.8316 -0.0426 -0.2270
  403DOPC  C31655605   7.419  10.144   4.035  0.7313 -0.2070  0.5568
  403DOPC  H16X55606   7.395  10.252   4.029  0.4692 -0.3232 -1.6127
  403DOPC  H16Y55607   7.357  10.087   3.962  1.6320 -1.4855  0.7585
  403DOPC  C31755608   7.400  10.090   4.177  0.1797  0.4742 -0.3663
  403DOPC  H17X55609   7.447   9.990   4.188 -0.2500  0.2000 -0.9914
  403DOPC  H17Y55610   7.449  10.156   4.252 -0.8281 -1.2341  1.8929
  403DOPC  C31855611   7.245  10.075   4.205  0.6565  0.5710 -0.6353
  403DOPC  H18X55612   7.199  10.008   4.128  0.7112 -1.8517  1.3079
  403DOPC  H18Y55613   7.218  10.039   4.307 -1.6235 -1.1524 -1.7531
  403DOPC  H18Z55614   7.187  10.167   4.184  0.9199  0.3337 -2.6171
  404DOPC     N55615  12.008   0.645   1.705  0.1311  0.1158  0.1443
  404DOPC   C1255616  11.884   0.673   1.794  0.1958  0.2325 -0.1640
  404DOPC  H12A55617  11.799   0.653   1.731  1.2666 -1.2425 -1.2081
  404DOPC  H12B55618  11.875   0.777   1.821  1.9477  0.4488 -0.2750
  404DOPC   C1355619  12.133   0.669   1.784  0.3846  0.0806 -1.2651
  404DOPC  H13A55620  12.224   0.645   1.731  0.9421 -2.0261  0.4956
  404DOPC  H13B55621  12.141   0.771   1.819  1.2210 -0.3764 -0.0388
  404DOPC  H13C55622  12.121   0.608   1.872 -3.2437  1.3545 -0.7363
  404DOPC   C1455623  12.008   0.740   1.592 -0.4283 -0.0325  0.5429
  404DOPC  H14A55624  12.038   0.841   1.615 -1.0294  0.6025 -1.2793
  404DOPC  H14B55625  12.092   0.714   1.529  0.3398 -1.7569  2.1598
  404DOPC  H14C55626  11.915   0.742   1.538 -0.0154 -2.2028 -0.3763
  404DOPC   C1555627  11.995   0.501   1.655  0.6025 -0.6324 -0.2935
  404DOPC  H15A55628  12.086   0.458   1.615 -0.1563 -2.7799  0.1884
  404DOPC  H15B55629  11.928   0.512   1.572  0.9149  2.5665 -0.2489
  404DOPC  H15C55630  11.969   0.438   1.739 -1.2076 -0.3529 -0.5982
  404DOPC   C1155631  11.873   0.597   1.927 -0.5099  0.1231 -0.1634
  404DOPC  H11A55632  11.945   0.633   2.003 -3.2389 -0.3890  2.9311
  404DOPC  H11B55633  11.775   0.635   1.965 -0.7671  0.1898 -0.8745
  404DOPC     P55634  11.741   0.387   1.869  0.1739  0.4806  0.1528
  404DOPC   O1355635  11.774   0.259   1.793 -0.2369  0.1746  0.3122
  404DOPC   O1455636  11.654   0.481   1.803 -0.3727 -0.5944  0.8206
  404DOPC   O1255637  11.875   0.452   1.915 -0.3354  0.0578  0.5040
  404DOPC   O1155638  11.667   0.354   1.999  0.0666  0.1909 -0.5625
  404DOPC    C155639  11.738   0.299   2.114 -0.2243  0.0587 -0.5834
  404DOPC    HA55640  11.847   0.319   2.106 -0.2139  0.4402  0.3688
  404DOPC    HB55641  11.727   0.189   2.122  1.0846 -0.0658 -0.1735
  404DOPC    C255642  11.708   0.374   2.250  0.0645 -0.0277  0.5747
  404DOPC    HS55643  11.798   0.412   2.304 -0.3612  1.0765  0.5221
  404DOPC   O2155644  11.627   0.292   2.339  0.4168  0.1480  0.0920
  404DOPC   C2155645  11.693   0.184   2.384 -0.5830  0.3401 -0.2141
  404DOPC   O2255646  11.809   0.156   2.357  0.2644  0.9773 -0.5750
  404DOPC   C2255647  11.595   0.096   2.460  0.5066 -1.0418 -0.3734
  404DOPC   H2R55648  11.616  -0.009   2.432  0.6576 -1.0864 -0.0992
  404DOPC   H2S55649  11.502   0.137   2.414  1.3387  0.8263 -0.4867
  404DOPC    C355650  11.628   0.507   2.226 -0.4919 -0.5822  0.2828
  404DOPC    HX55651  11.536   0.485   2.168 -0.1164 -0.3642 -0.4123
  404DOPC    HY55652  11.693   0.559   2.153 -2.5220  1.5764 -0.0895
  404DOPC   O3155653  11.597   0.593   2.340  0.5458  0.0064  0.3803
  404DOPC   C3155654  11.690   0.692   2.366 -0.1263  0.2375 -0.1178
  404DOPC   O3255655  11.766   0.744   2.296 -0.3438 -0.5051  0.3833
  404DOPC   C3255656  11.654   0.738   2.516  0.5798 -0.4868  0.5153
  404DOPC   H2X55657  11.714   0.831   2.531  2.8192 -1.4519 -1.7855
  404DOPC   H2Y55658  11.547   0.768   2.512  1.2122  2.0456 -3.8323
  404DOPC   C2355659  11.591   0.117   2.612 -0.0977 -0.0077 -0.1922
  404DOPC   H3R55660  11.503   0.063   2.652 -1.2467  2.0786  0.1954
  404DOPC   H3S55661  11.582   0.227   2.621 -0.9666 -0.0510 -0.4962
  404DOPC   C2455662  11.712   0.053   2.680 -0.3389 -0.2522  0.0711
  404DOPC   H4R55663  11.808   0.102   2.654 -0.6033  0.2074 -0.0493
  404DOPC   H4S55664  11.714  -0.056   2.655 -2.3161 -0.2248 -0.3809
  404DOPC   C2555665  11.704   0.051   2.835 -0.1639 -1.1018  1.0475
  404DOPC   H5R55666  11.694   0.155   2.872 -0.6210 -1.2134  1.2473
  404DOPC   H5S55667  11.805   0.026   2.874  0.5741  0.2951  0.1105
  404DOPC   C2655668  11.595  -0.039   2.885 -0.3017  0.0349  0.1249
  404DOPC   H6R55669  11.603  -0.141   2.842 -0.7565  0.9886 -2.4368
  404DOPC   H6S55670  11.494  -0.001   2.858 -0.9856 -1.1550  0.9567
  404DOPC   C2755671  11.608  -0.044   3.041  0.1974  0.2712 -0.1682
  404DOPC   H7R55672  11.718  -0.034   3.057 -0.2633  2.4394  2.3370
  404DOPC   H7S55673  11.555  -0.137   3.066 -0.2309 -0.0387 -2.0341
  404DOPC   C2855674  11.547   0.075   3.117  0.2753 -0.4808  0.6418
  404DOPC   H8R55675  11.606   0.164   3.084  1.8131 -1.5437  0.4179
  404DOPC   H8S55676  11.444   0.086   3.079  1.0520 -1.4326 -1.9094
  404DOPC   C2955677  11.542   0.056   3.264  0.6340 -0.4421  0.1653
  404DOPC   H9R55678  11.595   0.132   3.323  1.9274 -0.9587 -0.3017
  404DOPC  C21055679  11.474  -0.040   3.336 -0.2474 -0.0786  0.4178
  404DOPC  H10R55680  11.488  -0.046   3.445 -1.2527 -1.9171  0.4868
  404DOPC  C21155681  11.401  -0.156   3.281 -0.1392 -0.0569  0.2939
  404DOPC  H11R55682  11.379  -0.137   3.173  1.1158 -1.1995 -0.1884
  404DOPC  H11S55683  11.302  -0.150   3.331  0.6481 -2.1035  2.2327
  404DOPC  C21255684  11.472  -0.294   3.305  0.2050  0.5008 -0.7623
  404DOPC  H12R55685  11.580  -0.282   3.282  0.8733  1.3290  2.2871
  404DOPC  H12S55686  11.433  -0.370   3.234 -0.2025  0.1829 -0.2094
  404DOPC  C21355687  11.465  -0.339   3.448  0.6725 -0.2292 -0.2239
  404DOPC  H13R55688  11.486  -0.267   3.530 -2.7144  0.6754 -0.0139
  404DOPC  H13S55689  11.534  -0.425   3.460  0.4698 -0.3824 -0.1558
  404DOPC  C21455690  11.329  -0.402   3.493 -0.0512 -0.4353 -0.0041
  404DOPC  H14R55691  11.293  -0.464   3.409 -0.1813 -2.8291  1.7151
  404DOPC  H14S55692  11.247  -0.328   3.499 -0.4380 -0.9740  1.9674
  404DOPC  C21555693  11.336  -0.497   3.614 -0.1499 -0.3200  0.2016
  404DOPC  H15R55694  11.236  -0.534   3.645 -0.0331 -0.0565  0.9180
  404DOPC  H15S55695  11.395  -0.457   3.699 -1.0787  0.4415  0.5022
  404DOPC  C21655696  11.421  -0.627   3.579 -0.2910 -0.1834  0.1815
  404DOPC  H16R55697  11.530  -0.607   3.568  0.1399 -1.7129  1.3600
  404DOPC  H16S55698  11.387  -0.672   3.483  0.0554  1.0272 -0.5363
  404DOPC  C21755699  11.411  -0.724   3.696  0.0378  0.5166 -0.2918
  404DOPC  H17R55700  11.304  -0.724   3.724  0.1715  0.7041  0.2266
  404DOPC  H17S55701  11.468  -0.678   3.780  2.8546 -1.9102 -0.6778
  404DOPC  C21855702  11.444  -0.873   3.680 -0.0334  0.2371  0.2590
  404DOPC  H18R55703  11.552  -0.898   3.673 -0.2022 -0.3813 -0.2637
  404DOPC  H18S55704  11.396  -0.918   3.590  0.2631  0.4155  0.0089
  404DOPC  H18T55705  11.416  -0.931   3.770  0.9251 -0.0654  0.3772
  404DOPC   C3355706  11.684   0.629   2.612  0.3053  0.0600  0.1268
  404DOPC   H3X55707  11.781   0.575   2.600  0.5568  0.0181  2.0609
  404DOPC   H3Y55708  11.604   0.556   2.592  0.8246 -0.3993 -0.3038
  404DOPC   C3455709  11.666   0.667   2.763 -0.2626 -0.1993 -0.0341
  404DOPC   H4X55710  11.562   0.705   2.762 -0.2491 -0.0408  1.5727
  404DOPC   H4Y55711  11.734   0.750   2.793 -1.7856  1.0383  0.0959
  404DOPC   C3555712  11.674   0.548   2.852 -0.3462  0.0617 -0.0137
  404DOPC   H5X55713  11.585   0.485   2.832 -1.2576  1.8818 -2.0679
  404DOPC   H5Y55714  11.764   0.488   2.829  0.9313  1.6980  0.5240
  404DOPC   C3655715  11.686   0.582   3.002  0.8510 -0.5656 -1.2869
  404DOPC   H6X55716  11.779   0.643   2.996 -2.0188  4.4156 -0.7452
  404DOPC   H6Y55717  11.604   0.651   3.030  0.4736 -1.1041 -1.0620
  404DOPC   C3755718  11.700   0.460   3.099  0.4800 -0.3265 -0.1467
  404DOPC   H7X55719  11.613   0.391   3.104  0.9691 -0.9149  0.3997
  404DOPC   H7Y55720  11.775   0.396   3.048  1.1301 -1.1548  1.7800
  404DOPC   C3855721  11.741   0.493   3.245 -0.3752 -0.5008  0.3442
  404DOPC   H8X55722  11.799   0.587   3.231  0.3141 -1.1846 -1.9371
  404DOPC   H8Y55723  11.793   0.412   3.301 -0.1049 -0.5783 -0.0149
  404DOPC   C3955724  11.612   0.524   3.320  0.6460 -0.4790  0.0735
  404DOPC   H9X55725  11.521   0.556   3.266 -1.7175 -3.5139  1.9224
  404DOPC  C31055726  11.592   0.502   3.452 -0.2982  0.4493  0.3840
  404DOPC  H10X55727  11.489   0.508   3.491 -0.6306  0.9671 -0.5402
  404DOPC  C31155728  11.694   0.457   3.552  0.0340  1.0069  0.6800
  404DOPC  H11X55729  11.718   0.351   3.531 -0.8421  1.2060 -1.6600
  404DOPC  H11Y55730  11.642   0.471   3.649 -2.4432 -0.2121 -0.3691
  404DOPC  C31255731  11.819   0.558   3.557 -0.6700  0.6603 -0.6034
  404DOPC  H12X55732  11.803   0.667   3.540  0.9014  1.2294  1.1748
  404DOPC  H12Y55733  11.889   0.510   3.485 -0.1407  0.5953 -0.0588
  404DOPC  C31355734  11.890   0.565   3.692 -0.3785 -0.0904  0.3138
  404DOPC  H13X55735  11.896   0.470   3.748  2.5300  0.6806  1.4754
  404DOPC  H13Y55736  11.997   0.585   3.671 -0.4883 -0.4528 -0.6342
  404DOPC  C31455737  11.851   0.692   3.783 -0.2046  0.3632 -0.4009
  404DOPC  H14X55738  11.859   0.791   3.733  2.2997  2.9704  4.4681
  404DOPC  H14Y55739  11.743   0.672   3.801 -0.1351 -0.2757 -0.6713
  404DOPC  C31555740  11.924   0.698   3.919 -0.4538  0.2311  0.4780
  404DOPC  H15X55741  12.025   0.657   3.901 -1.5518 -1.9260 -1.3660
  404DOPC  H15Y55742  11.869   0.629   3.985  0.5974 -0.4713  0.6328
  404DOPC  C31655743  11.924   0.841   3.972  0.0108 -0.3939 -0.0776
  404DOPC  H16X55744  11.970   0.913   3.902 -0.2416  1.2341  1.3743
  404DOPC  H16Y55745  11.815   0.855   3.987 -0.3711 -0.6056 -2.3483
  404DOPC  C31755746  11.971   0.860   4.113  0.6711 -0.0074  0.4529
  404DOPC  H17X55747  12.075   0.825   4.122  0.7491 -0.8444 -2.5453
  404DOPC  H17Y55748  11.971   0.970   4.132  0.6099 -0.3522  2.7017
  404DOPC  C31855749  11.871   0.802   4.215  0.0544  0.6513  0.1024
  404DOPC  H18X55750  11.897   0.829   4.320 -0.8002 -1.8380  1.0359
  404DOPC  H18Y55751  11.771   0.846   4.194 -0.2147  1.1178  2.1109
  404DOPC  H18Z55752  11.839   0.696   4.206 -0.3056  0.8662 -1.3277
  405DOPC     N55753   3.592  11.942   1.956 -0.5935  0.1887  0.3732
  405DOPC   C1255754   3.652  12.041   2.049 -0.1574 -0.8249 -0.0145
  405DOPC  H12A55755   3.579  12.085   2.116  0.4131 -1.4679  1.0591
  405DOPC  H12B55756   3.701  12.124   2.000 -0.8576 -1.5495 -2.0320
  405DOPC   C1355757   3.684  11.887   1.849 -0.0365 -0.0357 -0.0211
  405DOPC  H13A55758   3.784  11.866   1.883  0.8269  1.2602 -1.6149
  405DOPC  H13B55759   3.648  11.792   1.813 -1.6015 -0.3423  2.1141
  405DOPC  H13C55760   3.708  11.963   1.776  1.6719  0.2893  0.8335
  405DOPC   C1455761   3.480  12.006   1.881 -0.4822  1.0490  0.1916
  405DOPC  H14A55762   3.450  11.958   1.790  0.5041  1.8025 -0.5496
  405DOPC  H14B55763   3.393  12.029   1.942 -3.0656  0.9148 -3.1523
  405DOPC  H14C55764   3.510  12.108   1.860  0.5866  0.6944 -0.0300
  405DOPC   C1555765   3.530  11.839   2.037 -0.2815 -0.8696  0.0294
  405DOPC  H15A55766   3.483  11.767   1.972 -0.5586 -0.6640  0.0027
  405DOPC  H15B55767   3.454  11.892   2.091  1.5239  3.0376 -0.8916
  405DOPC  H15C55768   3.597  11.796   2.110  1.3727  1.2108 -0.1518
  405DOPC   C1155769   3.747  11.993   2.160 -1.0103  0.0010 -0.8658
  405DOPC  H11A55770   3.744  12.072   2.239 -2.3008 -0.9690  0.0927
  405DOPC  H11B55771   3.713  11.909   2.224 -0.8031  0.4045 -0.2032
  405DOPC     P55772   3.969  12.108   2.056 -0.3158  0.3727 -0.3118
  405DOPC   O1355773   3.881  12.196   1.980  0.1233 -0.5704  0.2235
  405DOPC   O1455774   4.081  12.046   1.978 -0.3731 -0.8911 -0.7659
  405DOPC   O1255775   3.876  11.982   2.105 -0.0419 -0.1181  0.2141
  405DOPC   O1155776   4.015  12.191   2.185  0.3376 -0.0893  0.0515
  405DOPC    C155777   4.124  12.135   2.267 -0.0871  0.6930 -0.2497
  405DOPC    HA55778   4.176  12.214   2.326 -0.2405 -0.8918  2.1230
  405DOPC    HB55779   4.208  12.086   2.212  0.2365  0.2217  0.6473
  405DOPC    C255780   4.078  12.034   2.388  0.1827 -0.2897 -0.0062
  405DOPC    HS55781   4.027  11.949   2.339 -2.0331  0.9044  0.1142
  405DOPC   O2155782   3.990  12.109   2.481 -0.4104 -0.2461 -0.0305
  405DOPC   C2155783   3.893  12.036   2.534  0.0343  0.1979  1.1290
  405DOPC   O2255784   3.863  11.921   2.509 -0.1512  0.1480 -0.2186
  405DOPC   C2255785   3.812  12.127   2.623 -0.5645 -0.2636 -0.0467
  405DOPC   H2R55786   3.737  12.181   2.562 -1.1257  1.6476  2.1887
  405DOPC   H2S55787   3.892  12.196   2.657  2.1530 -2.0585 -2.3283
  405DOPC    C355788   4.206  11.982   2.464  0.4377 -0.0530  0.3653
  405DOPC    HX55789   4.268  12.067   2.500 -0.0067  0.4948 -0.1319
  405DOPC    HY55790   4.280  11.949   2.389  1.9868  0.4751  1.6032
  405DOPC   O3155791   4.180  11.887   2.570 -0.3621 -0.9311 -0.1369
  405DOPC   C3155792   4.172  11.766   2.526  0.6272  0.6024  0.8111
  405DOPC   O3255793   4.198  11.727   2.411  0.3098  1.1160  0.1630
  405DOPC   C3255794   4.155  11.671   2.649  0.6235 -0.7928  0.3851
  405DOPC   H2X55795   4.256  11.651   2.691 -0.1319 -0.9958  2.1653
  405DOPC   H2Y55796   4.088  11.723   2.720 -0.1258 -3.3417  1.6291
  405DOPC   C2355797   3.743  12.060   2.742  0.1199 -0.0539 -1.0451
  405DOPC   H3R55798   3.799  11.973   2.781  1.0696 -0.0046 -2.2477
  405DOPC   H3S55799   3.646  12.017   2.708  0.0908  0.3119 -1.4428
  405DOPC   C2455800   3.733  12.151   2.866 -0.5667  0.4603  0.2126
  405DOPC   H4R55801   3.675  12.244   2.844 -0.7476 -0.0587 -1.7573
  405DOPC   H4S55802   3.836  12.184   2.890 -0.6013 -0.1978  1.3245
  405DOPC   C2555803   3.651  12.095   2.986  0.5398 -0.2095  0.0885
  405DOPC   H5R55804   3.674  11.987   2.998 -0.8393 -0.7164 -1.4600
  405DOPC   H5S55805   3.543  12.118   2.977  0.5343  1.1059  2.5466
  405DOPC   C2655806   3.694  12.165   3.115 -0.1206 -0.8675 -0.1572
  405DOPC   H6R55807   3.802  12.146   3.129  0.2295 -0.9765 -2.7150
  405DOPC   H6S55808   3.635  12.129   3.203 -1.8308  2.2540  0.1298
  405DOPC   C2755809   3.659  12.314   3.115 -0.8480  0.3688 -0.4245
  405DOPC   H7R55810   3.555  12.327   3.154 -0.7719  1.5146 -0.5553
  405DOPC   H7S55811   3.659  12.362   3.015  0.4316  0.7864 -0.2384
  405DOPC   C2855812   3.745  12.404   3.212 -0.5998  1.1752  0.4426
  405DOPC   H8R55813   3.854  12.397   3.193 -1.1685 -2.0101 -2.5841
  405DOPC   H8S55814   3.723  12.365   3.314 -0.2056  2.6266  1.0994
  405DOPC   C2955815   3.697  12.542   3.207  0.4151 -0.3858 -1.0322
  405DOPC   H9R55816   3.671  12.590   3.111 -0.1753  0.1893 -0.5944
  405DOPC  C21055817   3.684  12.621   3.312 -0.2964 -0.0506 -0.2482
  405DOPC  H10R55818   3.642  12.722   3.305 -1.0625 -0.4203 -1.5119
  405DOPC  C21155819   3.709  12.581   3.452  0.6057 -0.9766 -0.5500
  405DOPC  H11R55820   3.733  12.674   3.508  1.5083 -1.2247 -0.5099
  405DOPC  H11S55821   3.808  12.532   3.464  0.8056 -0.5566 -0.4694
  405DOPC  C21255822   3.596  12.503   3.523 -0.1959  0.0181 -0.1986
  405DOPC  H12R55823   3.595  12.398   3.486 -0.1036 -0.6721  1.6332
  405DOPC  H12S55824   3.493  12.540   3.505 -0.5229 -1.1930 -0.9218
  405DOPC  C21355825   3.610  12.484   3.678 -0.6248 -0.1119  0.1428
  405DOPC  H13R55826   3.717  12.488   3.705 -0.2046 -3.0784 -0.6687
  405DOPC  H13S55827   3.565  12.387   3.711 -1.5371  0.8580  1.8846
  405DOPC  C21455828   3.531  12.591   3.748  0.4706 -0.9262 -0.0613
  405DOPC  H14R55829   3.423  12.567   3.738 -0.1376  1.3128  0.5486
  405DOPC  H14S55830   3.550  12.687   3.696 -0.2914 -0.1767  1.0143
  405DOPC  C21555831   3.566  12.608   3.903  0.0920  0.8187  0.0421
  405DOPC  H15R55832   3.543  12.515   3.960 -0.3445  0.7321 -0.2685
  405DOPC  H15S55833   3.490  12.683   3.934 -0.8945  1.1107 -2.8034
  405DOPC  C21655834   3.707  12.662   3.935  0.2365 -0.7496  0.0583
  405DOPC  H16R55835   3.741  12.694   3.834  0.7853 -0.0403  0.4585
  405DOPC  H16S55836   3.771  12.577   3.968 -1.2450 -2.2513 -0.7860
  405DOPC  C21755837   3.708  12.789   4.027  0.0255  0.0887 -0.9395
  405DOPC  H17R55838   3.635  12.862   3.988  1.7383  1.3004 -2.0415
  405DOPC  H17S55839   3.809  12.835   4.036  0.1303 -0.5377  4.1401
  405DOPC  C21855840   3.660  12.757   4.165 -0.2679  0.0429  0.1536
  405DOPC  H18R55841   3.665  12.851   4.224 -2.3031 -0.0502  0.5600
  405DOPC  H18S55842   3.719  12.675   4.212  2.1687  0.8338 -1.3665
  405DOPC  H18T55843   3.558  12.714   4.157 -0.1307 -0.1891 -0.4173
  405DOPC   C3355844   4.089  11.535   2.603 -0.0102 -0.4488 -0.2782
  405DOPC   H3X55845   4.159  11.512   2.519  1.8658  0.1796  1.0386
  405DOPC   H3Y55846   3.992  11.550   2.552 -0.7007 -0.2883  1.0379
  405DOPC   C3455847   4.079  11.419   2.705  0.2950 -0.3803 -0.3071
  405DOPC   H4X55848   4.171  11.411   2.765  1.8761  0.5424 -2.4674
  405DOPC   H4Y55849   4.070  11.323   2.649 -0.5941 -0.8845  0.6537
  405DOPC   C3555850   3.958  11.435   2.796  0.5440  0.5458 -0.2855
  405DOPC   H5X55851   3.859  11.416   2.750  1.4718  0.5129 -2.3944
  405DOPC   H5Y55852   3.957  11.544   2.817  0.6813  0.3982  0.5453
  405DOPC   C3655853   3.960  11.350   2.925 -0.2428  0.7796  0.6062
  405DOPC   H6X55854   4.048  11.388   2.981  0.7564  1.5833 -1.4143
  405DOPC   H6Y55855   3.874  11.375   2.992 -0.6930 -1.8702  1.1062
  405DOPC   C3755856   3.964  11.192   2.902  0.3983 -0.1869  0.0903
  405DOPC   H7X55857   3.888  11.180   2.822  0.9519 -1.1012 -0.3234
  405DOPC   H7Y55858   4.064  11.162   2.862  0.8745 -0.1002  1.1887
  405DOPC   C3855859   3.936  11.111   3.024  0.5068 -0.4248 -0.4166
  405DOPC   H8X55860   3.923  11.005   2.993 -0.0240 -0.9846  1.5902
  405DOPC   H8Y55861   3.839  11.136   3.071  0.4134  0.3464 -1.0109
  405DOPC   C3955862   4.047  11.122   3.122  0.0883 -0.0825 -0.3356
  405DOPC   H9X55863   4.136  11.059   3.104  0.3283 -0.0063  0.5381
  405DOPC  C31055864   4.049  11.196   3.236  0.2585 -0.1807 -0.0391
  405DOPC  H10X55865   4.138  11.182   3.299  1.4812 -1.2194 -1.9320
  405DOPC  C31155866   3.934  11.286   3.288  0.2056  0.2893 -0.3778
  405DOPC  H11X55867   3.829  11.250   3.284 -0.1952  0.6156  3.4018
  405DOPC  H11Y55868   3.936  11.370   3.215 -1.8936  0.5290 -0.2175
  405DOPC  C31255869   3.964  11.333   3.434 -0.4228  0.1484  0.0982
  405DOPC  H12X55870   3.965  11.249   3.506  0.9780 -0.3327 -0.4453
  405DOPC  H12Y55871   3.887  11.405   3.469 -0.2725  0.1430  0.4445
  405DOPC  C31355872   4.095  11.424   3.435  0.1872  0.0549  0.5529
  405DOPC  H13X55873   4.179  11.351   3.439  1.4929  1.5198  0.4265
  405DOPC  H13Y55874   4.115  11.480   3.342  0.9189 -1.9378 -0.5561
  405DOPC  C31455875   4.092  11.516   3.552  0.8013 -0.2933  0.2635
  405DOPC  H14X55876   4.185  11.576   3.547  0.2706  0.9075  2.8044
  405DOPC  H14Y55877   4.003  11.581   3.539  1.1491 -0.3744 -3.4761
  405DOPC  C31555878   4.082  11.447   3.690 -0.9755  0.2913 -0.1194
  405DOPC  H15X55879   4.142  11.353   3.689 -0.7077  0.4269  1.0477
  405DOPC  H15Y55880   3.977  11.428   3.722 -0.1398 -0.8791  2.1921
  405DOPC  C31655881   4.139  11.534   3.800  0.5322  0.1400 -0.2183
  405DOPC  H16X55882   4.247  11.558   3.795  0.5760 -0.2829 -2.1279
  405DOPC  H16Y55883   4.072  11.623   3.791 -1.9951 -1.6849 -0.8246
  405DOPC  C31755884   4.117  11.485   3.942  0.9514  0.5569 -0.1702
  405DOPC  H17X55885   4.018  11.435   3.949  2.1804 -1.7664  2.1601
  405DOPC  H17Y55886   4.185  11.405   3.977 -0.1658  0.0250  0.8560
  405DOPC  C31855887   4.127  11.608   4.043  0.9060  0.0978 -0.1464
  405DOPC  H18X55888   4.125  11.554   4.140 -0.9625  1.3518  0.5610
  405DOPC  H18Y55889   4.220  11.669   4.034  1.2231 -0.0092  1.9183
  405DOPC  H18Z55890   4.043  11.680   4.038  0.7610  0.1928  2.3877
  406DOPC     N55891   7.926   5.988   1.904 -0.1041 -0.2779  0.1619
  406DOPC   C1255892   7.992   5.909   2.010 -0.1180 -0.2015 -0.0610
  406DOPC  H12A55893   7.976   5.955   2.106  2.5319 -2.1699  1.4552
  406DOPC  H12B55894   8.099   5.918   1.999 -0.1590 -0.1429 -0.4316
  406DOPC   C1355895   7.992   5.959   1.774 -0.0448  0.6002 -0.4305
  406DOPC  H13A55896   8.094   5.995   1.770  0.0985  0.3067  0.2894
  406DOPC  H13B55897   7.980   5.853   1.756 -0.5039  0.2689  1.5189
  406DOPC  H13C55898   7.942   6.012   1.695  1.7243  1.0002 -1.3252
  406DOPC   C1455899   7.940   6.131   1.923  0.3259 -0.3810 -0.1106
  406DOPC  H14A55900   7.913   6.183   1.832 -3.6842 -2.3770 -0.2569
  406DOPC  H14B55901   7.868   6.162   1.997  0.7438 -1.6751  0.8699
  406DOPC  H14C55902   8.037   6.169   1.949  0.6236 -0.9479 -0.3757
  406DOPC   C1555903   7.784   5.951   1.896 -0.7743 -0.2851  0.6106
  406DOPC  H15A55904   7.744   5.998   1.808  1.5876 -1.6662 -1.3327
  406DOPC  H15B55905   7.724   5.981   1.981  0.3647  1.1698  0.9303
  406DOPC  H15C55906   7.779   5.848   1.864 -0.8603 -0.2296  0.4489
  406DOPC   C1155907   7.960   5.765   2.026 -0.3160  0.0073 -0.1410
  406DOPC  H11A55908   8.014   5.727   2.116 -2.0550 -1.7081  0.2511
  406DOPC  H11B55909   7.854   5.761   2.058 -0.6150 -1.8679 -1.2313
  406DOPC     P55910   8.087   5.584   1.873 -0.0909  0.1354  0.0342
  406DOPC   O1355911   8.190   5.648   1.789  0.2922  0.4437  1.1923
  406DOPC   O1455912   8.025   5.453   1.825  0.0876  0.5088  0.2954
  406DOPC   O1255913   7.977   5.683   1.907 -0.4914  0.6358 -0.0732
  406DOPC   O1155914   8.153   5.553   2.015  0.2393  0.0594  0.9043
  406DOPC    C155915   8.104   5.440   2.086 -0.0379 -0.0848 -0.7468
  406DOPC    HA55916   8.086   5.352   2.021 -2.9196 -1.1905  1.3666
  406DOPC    HB55917   8.005   5.467   2.127 -0.1905 -1.0871 -0.4214
  406DOPC    C255918   8.173   5.401   2.223  0.3982  0.4643  0.2936
  406DOPC    HS55919   8.098   5.340   2.278 -1.1564  0.4119 -1.7529
  406DOPC   O2155920   8.209   5.520   2.293  0.7203 -0.9055 -0.2117
  406DOPC   C2155921   8.111   5.592   2.336 -0.1284 -0.4904 -0.4141
  406DOPC   O2255922   7.993   5.562   2.336 -0.1852  0.1616 -0.1902
  406DOPC   C2255923   8.154   5.734   2.373  0.2867 -0.7546 -0.4076
  406DOPC   H2R55924   8.141   5.788   2.277  3.5173 -1.5632 -1.4300
  406DOPC   H2S55925   8.262   5.726   2.398  0.3526 -1.8955 -0.9914
  406DOPC    C355926   8.297   5.308   2.199  0.4816 -0.5930  0.5077
  406DOPC    HX55927   8.371   5.367   2.142  1.0581  0.5443  2.3426
  406DOPC    HY55928   8.258   5.227   2.133 -0.2423  1.4766 -1.7498
  406DOPC   O3155929   8.352   5.262   2.322  0.0592  0.8108  0.1177
  406DOPC   C3155930   8.308   5.140   2.373 -0.0449 -0.0604 -0.3932
  406DOPC   O3255931   8.208   5.082   2.336  0.1203  0.1290 -0.5314
  406DOPC   C3255932   8.390   5.103   2.497  0.0144 -0.1888  0.2188
  406DOPC   H2X55933   8.499   5.093   2.473  0.4851  0.9433  1.7649
  406DOPC   H2Y55934   8.373   5.170   2.583  1.4557  0.7662 -0.1892
  406DOPC   C2355935   8.062   5.794   2.481  0.5296 -0.0749 -0.5685
  406DOPC   H3R55936   7.957   5.762   2.465  0.2224  0.5494  0.1371
  406DOPC   H3S55937   8.069   5.905   2.480  4.6072  0.0003  3.2230
  406DOPC   C2455938   8.097   5.749   2.631  0.2775  0.1600  0.3984
  406DOPC   H4R55939   8.206   5.758   2.649  0.9991  0.5176 -3.2768
  406DOPC   H4S55940   8.060   5.646   2.646  2.3217 -0.4063  2.0168
  406DOPC   C2555941   8.017   5.850   2.717 -0.3779  0.1980  0.3083
  406DOPC   H5R55942   8.046   5.953   2.688  1.5603 -0.8259 -1.6932
  406DOPC   H5S55943   8.047   5.834   2.823 -1.7974 -0.7871  0.5928
  406DOPC   C2655944   7.867   5.830   2.710 -0.2914 -0.4136  0.2809
  406DOPC   H6R55945   7.853   5.725   2.742  1.9929 -0.4918  1.2071
  406DOPC   H6S55946   7.829   5.852   2.607 -0.9119  1.9343  0.9411
  406DOPC   C2755947   7.804   5.934   2.804 -0.7539 -0.1998  0.3306
  406DOPC   H7R55948   7.862   5.925   2.899  0.6120 -1.0486 -0.5494
  406DOPC   H7S55949   7.700   5.905   2.831 -1.0029  0.7655  0.4345
  406DOPC   C2855950   7.806   6.083   2.749  0.1942  0.4630  0.0526
  406DOPC   H8R55951   7.734   6.078   2.664 -1.5334 -0.8874  1.5181
  406DOPC   H8S55952   7.900   6.105   2.694  0.4098  2.1354  1.0145
  406DOPC   C2955953   7.761   6.191   2.844  0.2450 -0.4699 -0.2530
  406DOPC   H9R55954   7.845   6.248   2.886 -0.0965 -0.6139  0.6278
  406DOPC  C21055955   7.639   6.216   2.883  0.3218 -0.1240  0.1399
  406DOPC  H10R55956   7.617   6.294   2.957 -0.3943 -0.0901 -0.0972
  406DOPC  C21155957   7.519   6.136   2.849  0.1170 -0.0658 -0.0931
  406DOPC  H11R55958   7.552   6.035   2.820 -0.3005  0.0634 -1.0494
  406DOPC  H11S55959   7.467   6.175   2.758  1.8356  3.6461  0.3180
  406DOPC  C21255960   7.410   6.123   2.956 -0.5716  0.2784 -0.0214
  406DOPC  H12R55961   7.319   6.079   2.910  2.5184 -2.2831 -4.4742
  406DOPC  H12S55962   7.398   6.219   3.011 -1.6711 -0.8377  1.7962
  406DOPC  C21355963   7.453   6.026   3.073  0.2529 -0.1422  0.2748
  406DOPC  H13R55964   7.554   6.057   3.108 -0.0116  0.2120  0.7273
  406DOPC  H13S55965   7.453   5.922   3.032  0.2676 -0.0241 -0.0250
  406DOPC  C21455966   7.364   6.023   3.191 -0.1808 -0.4653  0.4014
  406DOPC  H14R55967   7.356   6.122   3.241 -1.1775  1.1859 -2.7546
  406DOPC  H14S55968   7.407   5.959   3.271 -1.7679 -1.9215  0.1268
  406DOPC  C21555969   7.222   5.978   3.165  0.9752 -0.0480  0.0955
  406DOPC  H15R55970   7.229   5.874   3.124  0.8747 -0.1193  0.2576
  406DOPC  H15S55971   7.168   6.038   3.088  1.3988  0.4746  0.2042
  406DOPC  C21655972   7.130   5.966   3.296  0.3994  0.2513  0.2831
  406DOPC  H16R55973   7.149   6.057   3.356 -0.2670  1.8041 -1.7174
  406DOPC  H16S55974   7.180   5.886   3.353  0.6084 -0.0341 -0.2886
  406DOPC  C21755975   6.979   5.956   3.286 -0.5320 -0.4666  0.8327
  406DOPC  H17R55976   6.966   5.854   3.245  2.1255 -0.5778  0.1018
  406DOPC  H17S55977   6.941   6.027   3.209 -0.8652  0.5527  1.9073
  406DOPC  C21855978   6.902   5.990   3.416 -0.5853  0.6635  0.3858
  406DOPC  H18R55979   6.898   5.899   3.479 -0.7304  1.0850  1.0011
  406DOPC  H18S55980   6.796   6.012   3.389  0.4957  3.3041 -2.2241
  406DOPC  H18T55981   6.955   6.073   3.467  0.3843  0.6594 -0.5796
  406DOPC   C3355982   8.340   4.958   2.534  0.0914  0.2918  1.0705
  406DOPC   H3X55983   8.357   4.884   2.453 -0.0061 -0.0170  1.3277
  406DOPC   H3Y55984   8.234   4.967   2.564  0.0691 -1.7891  1.8324
  406DOPC   C3455985   8.408   4.886   2.655 -0.4918  0.3425 -0.2942
  406DOPC   H4X55986   8.511   4.854   2.630 -0.0701  1.4823 -0.0523
  406DOPC   H4Y55987   8.349   4.797   2.686 -0.3536 -0.5490 -2.4085
  406DOPC   C3555988   8.438   4.966   2.785  0.8010 -0.2584  0.0776
  406DOPC   H5X55989   8.340   4.996   2.828  0.7198  0.1433 -0.3785
  406DOPC   H5Y55990   8.493   5.057   2.753 -0.0682  1.0363  2.0690
  406DOPC   C3655991   8.519   4.896   2.894 -0.3549  0.0791 -0.8225
  406DOPC   H6X55992   8.546   4.964   2.978 -2.1312  1.6297 -1.4397
  406DOPC   H6Y55993   8.455   4.819   2.943  0.3904  0.3002  0.5494
  406DOPC   C3755994   8.647   4.831   2.849 -0.0653  0.0256  0.0390
  406DOPC   H7X55995   8.615   4.739   2.796 -0.8016  1.5450 -2.3226
  406DOPC   H7Y55996   8.690   4.905   2.778  1.0558 -0.0229  0.6493
  406DOPC   C3855997   8.751   4.787   2.959  0.3533  0.5076 -0.2589
  406DOPC   H8X55998   8.703   4.737   3.046  0.6244 -1.3232 -1.1171
  406DOPC   H8Y55999   8.804   4.878   2.993  0.6381 -0.0882  0.9920
  406DOPC   C3956000   8.852   4.678   2.907  0.0857 -0.0277 -0.2344
  406DOPC   H9X56001   8.815   4.581   2.873 -0.1241  0.3494 -1.1061
  406DOPC  C31056002   8.986   4.687   2.915  0.4450  0.3084 -0.2106
  406DOPC  H10X56003   9.035   4.604   2.861  0.3272  0.4177 -0.4859
  406DOPC  C31156004   9.068   4.797   2.979 -0.0673 -0.3620  0.0066
  406DOPC  H11X56005   9.111   4.748   3.069 -0.6184 -1.0446 -0.0967
  406DOPC  H11Y56006   9.008   4.880   3.024 -1.5028 -1.8421  0.9101
  406DOPC  C31256007   9.191   4.861   2.904  0.2291 -0.0244 -0.0408
  406DOPC  H12X56008   9.157   4.922   2.818 -0.6132 -0.1091  0.2201
  406DOPC  H12Y56009   9.247   4.775   2.861 -0.2005 -0.2761 -0.1005
  406DOPC  C31356010   9.266   4.950   2.999  0.1741 -0.6081 -0.2038
  406DOPC  H13X56011   9.201   5.038   3.017  0.3675 -0.7182  1.1140
  406DOPC  H13Y56012   9.264   4.900   3.099  1.1407  1.5406  0.9423
  406DOPC  C31456013   9.416   4.964   2.961  0.0863  0.2611 -0.1997
  406DOPC  H14X56014   9.466   4.995   3.056 -2.2177  0.6204  0.9748
  406DOPC  H14Y56015   9.461   4.865   2.938  0.5627  0.4042  0.0826
  406DOPC  C31556016   9.446   5.054   2.834  0.4235  0.3791 -0.2935
  406DOPC  H15X56017   9.408   5.154   2.864  1.0479 -0.3624  3.4984
  406DOPC  H15Y56018   9.394   5.013   2.744 -1.0590  1.7967 -0.1257
  406DOPC  C31656019   9.592   5.058   2.789  0.7280 -0.1657 -0.6682
  406DOPC  H16X56020   9.610   4.970   2.724 -1.0215 -0.5924 -0.6015
  406DOPC  H16Y56021   9.611   5.150   2.729 -0.0059  1.4156  1.4081
  406DOPC  C31756022   9.683   5.055   2.914 -0.8661  0.0913  0.9594
  406DOPC  H17X56023   9.666   5.147   2.974 -0.6647  0.8524 -0.1285
  406DOPC  H17Y56024   9.669   4.963   2.975  1.4438  0.2280  1.7744
  406DOPC  C31856025   9.831   5.047   2.879  0.2227 -0.6546  0.1324
  406DOPC  H18X56026   9.865   5.121   2.804  2.3164 -1.0841  0.5806
  406DOPC  H18Y56027   9.893   5.070   2.968 -1.2261  1.2812  0.7063
  406DOPC  H18Z56028   9.866   4.950   2.837 -2.5190 -2.4171  1.6361
  407DOPC     N56029   2.583  12.325   2.028  0.4099 -0.0815  0.0940
  407DOPC   C1256030   2.684  12.426   2.084 -0.4752 -0.1095  0.1135
  407DOPC  H12A56031   2.725  12.400   2.181 -0.8482  1.2497  0.6634
  407DOPC  H12B56032   2.623  12.511   2.109 -2.3207 -1.1373 -0.6939
  407DOPC   C1356033   2.482  12.295   2.127  0.0830  0.0116 -0.7449
  407DOPC  H13A56034   2.452  12.382   2.184  2.6324 -0.7109  1.9704
  407DOPC  H13B56035   2.407  12.235   2.077  0.7121 -0.2767 -1.3626
  407DOPC  H13C56036   2.527  12.235   2.205 -1.4122 -0.2936 -0.0744
  407DOPC   C1456037   2.643  12.198   1.977  1.1379  0.1188 -0.1798
  407DOPC  H14A56038   2.725  12.226   1.913  1.5605 -1.2736 -0.2910
  407DOPC  H14B56039   2.679  12.142   2.063  0.2283  2.0414  1.5292
  407DOPC  H14C56040   2.571  12.146   1.915  1.2619  0.4768 -0.6293
  407DOPC   C1556041   2.504  12.387   1.922 -0.3922  0.3293 -0.4721
  407DOPC  H15A56042   2.447  12.467   1.966 -2.9189 -1.9242  0.6422
  407DOPC  H15B56043   2.435  12.316   1.878 -0.8334  0.8224 -0.5757
  407DOPC  H15C56044   2.571  12.431   1.850  1.2065 -1.9523 -0.4894
  407DOPC   C1156045   2.807  12.455   1.997 -0.6896  0.0467 -0.3692
  407DOPC  H11A56046   2.771  12.479   1.894  0.1342 -0.3137 -0.7524
  407DOPC  H11B56047   2.842  12.555   2.032 -3.0898  0.5063  0.9266
  407DOPC     P56048   2.974  12.294   2.125  0.4963  0.1402 -0.1214
  407DOPC   O1356049   3.105  12.240   2.078  0.1552 -0.3496 -0.0728
  407DOPC   O1456050   2.895  12.200   2.209  0.2378 -0.0307 -0.0525
  407DOPC   O1256051   2.896  12.343   1.998 -0.2458  0.1223 -0.6741
  407DOPC   O1156052   3.003  12.426   2.201  0.1457 -0.0814 -0.5047
  407DOPC    C156053   3.097  12.448   2.308 -0.0043 -0.0612 -0.1561
  407DOPC    HA56054   3.089  12.557   2.330 -0.0335 -0.3257  1.2060
  407DOPC    HB56055   3.202  12.435   2.275  0.2208  0.8574  0.1694
  407DOPC    C256056   3.060  12.359   2.427 -0.1224  0.1144 -0.3209
  407DOPC    HS56057   3.076  12.254   2.394  2.1747  0.7545 -1.4283
  407DOPC   O2156058   2.922  12.381   2.461  0.2668 -0.6586 -0.3189
  407DOPC   C2156059   2.862  12.280   2.517  0.2124  0.1872  0.4088
  407DOPC   O2256060   2.905  12.165   2.534  0.4657 -0.2779  0.2529
  407DOPC   C2256061   2.721  12.325   2.561  0.2431  0.1296 -0.2880
  407DOPC   H2R56062   2.658  12.247   2.513 -0.4153 -0.4428  1.4290
  407DOPC   H2S56063   2.683  12.425   2.530 -1.2732 -0.8727 -1.8533
  407DOPC    C356064   3.141  12.393   2.556 -0.6931 -0.5186  0.2844
  407DOPC    HX56065   3.105  12.495   2.583 -0.7731  0.1696 -2.1674
  407DOPC    HY56066   3.250  12.402   2.538 -0.5059 -0.2042  1.4727
  407DOPC   O3156067   3.122  12.293   2.659 -0.3485 -0.3322 -0.2257
  407DOPC   C3156068   3.218  12.200   2.673 -0.0279 -0.2017  0.6252
  407DOPC   O3256069   3.313  12.189   2.600  0.0776 -0.5309  0.0664
  407DOPC   C3256070   3.183  12.114   2.791  0.8085 -0.6205  0.2447
  407DOPC   H2X56071   3.091  12.156   2.837  2.1038  0.4151  1.9910
  407DOPC   H2Y56072   3.149  12.016   2.749  0.5675 -0.5391  0.2477
  407DOPC   C2356073   2.693  12.284   2.709 -0.0206  0.5540  0.0734
  407DOPC   H3R56074   2.711  12.175   2.723 -0.9350  0.4980  0.8832
  407DOPC   H3S56075   2.584  12.298   2.723 -0.2015  0.3204 -0.9583
  407DOPC   C2456076   2.773  12.363   2.811 -0.2812  0.0472 -0.0829
  407DOPC   H4R56077   2.754  12.472   2.804 -0.0973  0.1664  1.0925
  407DOPC   H4S56078   2.881  12.342   2.795 -0.1074 -3.1541  3.6951
  407DOPC   C2556079   2.745  12.309   2.958  0.1576  0.0421  0.2452
  407DOPC   H5R56080   2.791  12.210   2.976  1.0319  0.5768  1.0753
  407DOPC   H5S56081   2.634  12.301   2.966 -0.0441  2.3250  0.3321
  407DOPC   C2656082   2.802  12.414   3.062  0.0938  0.4556 -0.6370
  407DOPC   H6R56083   2.750  12.509   3.039 -0.6656  0.3943  0.7112
  407DOPC   H6S56084   2.912  12.422   3.050  0.4115 -0.9330  0.9085
  407DOPC   C2756085   2.784  12.378   3.212 -0.1590  0.5462  0.4288
  407DOPC   H7R56086   2.847  12.436   3.283 -1.7591  0.6507  1.8239
  407DOPC   H7S56087   2.807  12.270   3.227 -0.9428  0.1996 -0.7216
  407DOPC   C2856088   2.638  12.382   3.260 -0.1096  0.7620 -0.3407
  407DOPC   H8R56089   2.579  12.307   3.202  0.8584  0.6203 -1.1570
  407DOPC   H8S56090   2.588  12.479   3.240 -0.3188  1.0021  1.2012
  407DOPC   C2956091   2.615  12.349   3.406  0.1366  0.3216  0.1400
  407DOPC   H9R56092   2.582  12.246   3.424 -1.8999  0.9728  0.4037
  407DOPC  C21056093   2.617  12.431   3.505 -0.2770 -0.3235 -0.3845
  407DOPC  H10R56094   2.594  12.395   3.607 -0.3477  1.0363  0.0909
  407DOPC  C21156095   2.659  12.577   3.501  0.3752 -0.1579 -0.4452
  407DOPC  H11R56096   2.689  12.612   3.400  1.8717 -0.1015 -0.0040
  407DOPC  H11S56097   2.757  12.577   3.552  0.3758 -1.0506 -0.4247
  407DOPC  C21256098   2.551  12.673   3.566  0.0468 -0.5922  0.3556
  407DOPC  H12R56099   2.460  12.621   3.527  1.7775 -0.7962 -3.9680
  407DOPC  H12S56100   2.557  12.772   3.516  1.2030 -0.2149  1.2060
  407DOPC  C21356101   2.546  12.676   3.716 -0.0551  0.2352  0.2385
  407DOPC  H13R56102   2.566  12.573   3.755  0.7237  0.6647  1.0036
  407DOPC  H13S56103   2.455  12.716   3.766  0.0988 -1.0911  1.6963
  407DOPC  C21456104   2.664  12.752   3.774  0.2152 -0.5205  0.0114
  407DOPC  H14R56105   2.760  12.706   3.742  1.2636  2.5626 -1.7688
  407DOPC  H14S56106   2.670  12.751   3.885  0.5969 -0.5507 -0.0082
  407DOPC  C21556107   2.670  12.903   3.737  0.6002 -0.2483  0.8007
  407DOPC  H15R56108   2.580  12.960   3.768 -0.0272 -0.7699 -0.0393
  407DOPC  H15S56109   2.670  12.904   3.626  1.1449 -1.7803  0.7613
  407DOPC  C21656110   2.789  12.976   3.803 -0.4596  0.3789  0.4672
  407DOPC  H16R56111   2.796  13.080   3.765 -0.6526  0.1668 -0.1654
  407DOPC  H16S56112   2.882  12.918   3.783 -0.8631 -0.1407  0.0807
  407DOPC  C21756113   2.796  12.985   3.956 -0.1830 -0.9611 -0.2149
  407DOPC  H17R56114   2.806  12.880   3.991 -2.2228 -1.4367 -0.9325
  407DOPC  H17S56115   2.704  13.033   3.995  1.3364  0.7688  1.3891
  407DOPC  C21856116   2.909  13.076   4.006 -0.1452 -0.6378  0.0184
  407DOPC  H18R56117   3.005  13.038   3.967  0.4133 -1.9910  2.5099
  407DOPC  H18S56118   2.910  13.094   4.116  1.0724  0.9405 -0.2181
  407DOPC  H18T56119   2.886  13.174   3.958 -1.6736 -1.4839 -1.0901
  407DOPC   C3356120   3.287  12.104   2.897  0.0671 -0.1389 -0.7293
  407DOPC   H3X56121   3.307  12.200   2.950  0.9763 -1.3981  1.3393
  407DOPC   H3Y56122   3.384  12.070   2.856 -0.4373 -1.1464 -1.1136
  407DOPC   C3456123   3.238  12.006   3.011 -0.2521  0.1544 -0.2951
  407DOPC   H4X56124   3.216  11.910   2.960  0.7082  0.9221 -2.2527
  407DOPC   H4Y56125   3.146  12.051   3.053  1.0364  0.4344  2.4319
  407DOPC   C3556126   3.337  11.995   3.126 -1.2308 -0.4984 -0.4070
  407DOPC   H5X56127   3.358  12.097   3.164 -2.1339  0.0709 -1.3969
  407DOPC   H5Y56128   3.438  11.960   3.096 -0.3391 -1.1514  2.8507
  407DOPC   C3656129   3.292  11.898   3.231 -0.2025 -0.1540 -0.4753
  407DOPC   H6X56130   3.200  11.941   3.278 -1.4516 -0.9158 -2.1083
  407DOPC   H6Y56131   3.261  11.799   3.190 -1.0285 -0.7515  1.4557
  407DOPC   C3756132   3.408  11.880   3.335 -0.6494  0.2636 -0.4166
  407DOPC   H7X56133   3.500  11.840   3.288 -1.0150 -1.0330 -0.0990
  407DOPC   H7Y56134   3.434  11.980   3.375 -0.4318 -0.1919  0.6268
  407DOPC   C3856135   3.379  11.799   3.466  0.7735  0.0519  0.4854
  407DOPC   H8X56136   3.478  11.803   3.518  1.1935  2.5809 -0.3649
  407DOPC   H8Y56137   3.351  11.698   3.431 -0.9738  0.2455  1.2302
  407DOPC   C3956138   3.260  11.861   3.538  0.6486 -1.1579 -0.5580
  407DOPC   H9X56139   3.178  11.893   3.471 -0.0236 -1.3479  0.1626
  407DOPC  C31056140   3.243  11.865   3.672  0.0645  0.1754  0.1203
  407DOPC  H10X56141   3.169  11.929   3.724 -2.4399 -1.6625 -1.0007
  407DOPC  C31156142   3.341  11.809   3.773 -0.2270 -0.7312  0.2818
  407DOPC  H11X56143   3.390  11.894   3.824  1.8807 -0.8380 -1.3766
  407DOPC  H11Y56144   3.414  11.739   3.726 -2.1557 -1.0325 -2.4962
  407DOPC  C31256145   3.261  11.732   3.882 -0.7225 -0.0140 -0.4124
  407DOPC  H12X56146   3.213  11.643   3.836  0.4445 -1.1282  0.4471
  407DOPC  H12Y56147   3.185  11.799   3.927 -1.9542 -0.7094 -1.3643
  407DOPC  C31356148   3.350  11.691   4.004  0.0729  0.4156  0.3517
  407DOPC  H13X56149   3.424  11.616   3.969  1.3767  1.5023  0.7052
  407DOPC  H13Y56150   3.410  11.768   4.056  0.4947 -0.1503  0.7147
  407DOPC  C31456151   3.271  11.618   4.115 -0.0511  0.1583 -0.6025
  407DOPC  H14X56152   3.202  11.539   4.079  0.5340 -1.0819  0.8713
  407DOPC  H14Y56153   3.339  11.570   4.189  0.3141  3.0413  1.1043
  407DOPC  C31556154   3.187  11.721   4.209 -0.6482 -0.7125  0.3337
  407DOPC  H15X56155   3.088  11.739   4.161  0.9370  2.4170 -2.1518
  407DOPC  H15Y56156   3.254  11.809   4.198 -1.2374 -0.2406  0.4899
  407DOPC  C31656157   3.186  11.676   4.352  0.0729  0.6659 -0.6105
  407DOPC  H16X56158   3.150  11.571   4.351  0.4494  0.5353 -0.5046
  407DOPC  H16Y56159   3.293  11.686   4.380 -0.1986  1.9315  0.0782
  407DOPC  C31756160   3.101  11.767   4.444 -0.1604  0.1663  0.6135
  407DOPC  H17X56161   3.134  11.872   4.433  0.5439 -0.1937 -1.0263
  407DOPC  H17Y56162   2.998  11.757   4.403 -0.0482  0.0225  0.3664
  407DOPC  C31856163   3.088  11.713   4.590  0.0938 -0.0113 -0.5121
  407DOPC  H18X56164   3.056  11.607   4.595 -2.4756  0.7160 -0.3433
  407DOPC  H18Y56165   3.192  11.722   4.628  0.3462 -0.1221 -1.1529
  407DOPC  H18Z56166   3.014  11.762   4.657  1.5491 -0.4046  1.4837
  408DOPC     N56167   5.137   7.661   1.773  0.0809 -0.9250  0.0274
  408DOPC   C1256168   5.099   7.748   1.887 -0.6143 -0.0192  0.0356
  408DOPC  H12A56169   5.117   7.849   1.854 -0.1667 -0.5556 -1.4165
  408DOPC  H12B56170   5.165   7.722   1.968 -2.3716  0.9071  1.8679
  408DOPC   C1356171   5.284   7.662   1.737 -0.0908  0.2141 -0.4674
  408DOPC  H13A56172   5.315   7.758   1.699  0.4641  0.1587 -0.1730
  408DOPC  H13B56173   5.342   7.644   1.826 -1.3299 -2.2044 -0.0697
  408DOPC  H13C56174   5.316   7.592   1.661  3.0769 -0.8613  1.6791
  408DOPC   C1456175   5.064   7.709   1.657  0.1809 -0.0516 -0.0794
  408DOPC  H14A56176   5.079   7.655   1.565  1.3205 -1.6160  0.9690
  408DOPC  H14B56177   4.962   7.715   1.690 -0.7723  0.6207 -2.8896
  408DOPC  H14C56178   5.093   7.811   1.635 -1.4034  1.3357  3.4696
  408DOPC   C1556179   5.097   7.524   1.802  0.3896  0.0423 -0.6477
  408DOPC  H15A56180   5.130   7.457   1.724 -1.4107 -0.2927 -1.1792
  408DOPC  H15B56181   4.990   7.514   1.813  0.4998 -0.1019  0.4115
  408DOPC  H15C56182   5.138   7.489   1.895 -0.2093 -1.6353 -0.9780
  408DOPC   C1156183   4.957   7.741   1.941 -0.0822  0.3093  0.1301
  408DOPC  H11A56184   4.950   7.649   2.003 -0.2690  1.0396  1.2063
  408DOPC  H11B56185   4.952   7.824   2.015  3.7369  0.3177  0.5898
  408DOPC     P56186   4.736   7.646   1.860 -0.2909 -0.3724 -0.2713
  408DOPC   O1356187   4.790   7.511   1.839 -0.5214 -0.1103 -0.0671
  408DOPC   O1456188   4.625   7.689   1.776  0.5347 -0.1321  0.2645
  408DOPC   O1256189   4.854   7.746   1.839 -0.0840  0.4417  0.5885
  408DOPC   O1156190   4.696   7.655   2.018 -0.6567 -0.1879  0.2444
  408DOPC    C156191   4.646   7.778   2.070 -0.2216  0.2469 -0.2072
  408DOPC    HA56192   4.544   7.795   2.028  0.0984 -0.5568 -1.3678
  408DOPC    HB56193   4.703   7.871   2.049 -1.8869  1.3115 -0.2763
  408DOPC    C256194   4.617   7.779   2.225  0.1672 -0.1026  0.6458
  408DOPC    HS56195   4.576   7.879   2.250 -2.5252 -0.8178 -0.5571
  408DOPC   O2156196   4.732   7.742   2.302  0.7570 -0.1700 -0.1352
  408DOPC   C2156197   4.825   7.839   2.308  0.0965 -0.6412  0.8691
  408DOPC   O2256198   4.808   7.953   2.270  0.7453 -0.1456  0.4192
  408DOPC   C2256199   4.952   7.771   2.361  0.2709 -0.0502  0.3738
  408DOPC   H2R56200   5.027   7.805   2.286  0.9505  2.3112  1.9888
  408DOPC   H2S56201   4.930   7.663   2.344 -1.4572  0.5277 -1.6103
  408DOPC    C356202   4.497   7.676   2.250 -0.3585  0.1796  0.5485
  408DOPC    HX56203   4.518   7.594   2.178  2.0512 -0.2509  1.6352
  408DOPC    HY56204   4.402   7.726   2.222 -0.6393 -0.0576  1.0735
  408DOPC   O3156205   4.476   7.619   2.378  0.0829  0.4248 -0.3609
  408DOPC   C3156206   4.566   7.523   2.404 -0.4134 -0.3175  0.3491
  408DOPC   O3256207   4.639   7.473   2.324  0.4465  0.3807  0.8169
  408DOPC   C3256208   4.553   7.485   2.550 -0.1554 -0.1281 -0.7423
  408DOPC   H2X56209   4.581   7.578   2.604  0.0654 -1.7068  2.0686
  408DOPC   H2Y56210   4.452   7.448   2.579 -0.5410  0.0526 -1.8038
  408DOPC   C2356211   4.986   7.794   2.506  0.3562 -0.7432  0.3868
  408DOPC   H3R56212   5.009   7.900   2.530  2.2175 -0.1050 -3.5212
  408DOPC   H3S56213   5.085   7.746   2.511  1.1078  0.6550 -0.4597
  408DOPC   C2456214   4.889   7.732   2.607 -0.6740  0.4848  0.3506
  408DOPC   H4R56215   4.870   7.625   2.582  0.9629  0.3915 -0.7197
  408DOPC   H4S56216   4.792   7.784   2.596  0.3140  2.1808 -0.9859
  408DOPC   C2556217   4.948   7.747   2.747 -0.2355  0.6725 -0.3615
  408DOPC   H5R56218   4.960   7.858   2.750 -1.0942  1.0152 -4.0528
  408DOPC   H5S56219   5.046   7.695   2.748 -1.0252 -0.8410  0.2549
  408DOPC   C2656220   4.852   7.697   2.860  0.7465 -0.5732  0.2240
  408DOPC   H6R56221   4.902   7.724   2.955 -1.5073  0.9367  1.0293
  408DOPC   H6S56222   4.825   7.590   2.847 -1.1276 -0.2167  0.9670
  408DOPC   C2756223   4.723   7.773   2.865 -0.2176 -0.2695  0.6049
  408DOPC   H7R56224   4.661   7.779   2.772 -0.9850 -0.7256  1.0745
  408DOPC   H7S56225   4.755   7.878   2.881 -0.3803 -0.6002  3.6958
  408DOPC   C2856226   4.636   7.737   2.986  0.3165 -0.0931  0.0832
  408DOPC   H8R56227   4.693   7.771   3.075 -0.8008  2.3748 -0.0465
  408DOPC   H8S56228   4.630   7.626   2.979  1.1719 -0.1683  0.4575
  408DOPC   C2956229   4.497   7.801   2.978 -0.1865 -0.0062  0.7131
  408DOPC   H9R56230   4.424   7.746   2.917 -1.2797  3.8689 -1.7597
  408DOPC  C21056231   4.454   7.909   3.043  0.3832 -0.5382  0.0639
  408DOPC  H10R56232   4.358   7.960   3.027  0.6337  1.0411  2.9827
  408DOPC  C21156233   4.526   7.982   3.153 -0.1093  0.1610  0.5883
  408DOPC  H11R56234   4.620   7.937   3.193  1.1438  0.8642 -1.3789
  408DOPC  H11S56235   4.447   7.993   3.230 -1.1635 -0.7641 -0.3404
  408DOPC  C21256236   4.570   8.126   3.118 -0.1629 -0.0264 -0.4017
  408DOPC  H12R56237   4.596   8.187   3.208 -0.8308 -0.0137 -0.2117
  408DOPC  H12S56238   4.499   8.182   3.054 -0.9671  1.1346  1.4098
  408DOPC  C21356239   4.712   8.132   3.044 -0.4678 -0.0652 -0.3357
  408DOPC  H13R56240   4.724   8.070   2.953  1.7612 -0.5825  0.2452
  408DOPC  H13S56241   4.781   8.083   3.117  0.3120 -0.2066 -1.1526
  408DOPC  C21456242   4.758   8.279   3.018  0.6147 -0.2243  0.5109
  408DOPC  H14R56243   4.728   8.348   3.099 -1.4571  1.2879 -1.4233
  408DOPC  H14S56244   4.705   8.309   2.925 -0.3743  1.7517  1.6378
  408DOPC  C21556245   4.914   8.288   3.009  0.2916  0.8682  0.2826
  408DOPC  H15R56246   4.938   8.227   2.918 -2.0542  1.5213 -0.8483
  408DOPC  H15S56247   4.955   8.246   3.103 -0.7666  0.6664  0.6588
  408DOPC  C21656248   4.994   8.427   2.995  0.4312 -0.0590 -0.1889
  408DOPC  H16R56249   4.965   8.475   3.091  0.9418 -2.5176  1.2660
  408DOPC  H16S56250   4.967   8.491   2.908  2.2630  0.4463 -0.4265
  408DOPC  C21756251   5.143   8.393   2.985 -0.4385 -0.1615 -0.4352
  408DOPC  H17R56252   5.166   8.323   2.902 -1.1162 -1.1413  0.1873
  408DOPC  H17S56253   5.166   8.326   3.070  1.8320 -0.7012 -1.3811
  408DOPC  C21856254   5.233   8.513   2.978 -0.2187 -0.2508  0.0741
  408DOPC  H18R56255   5.221   8.583   3.064  0.5571 -0.2703  0.2092
  408DOPC  H18S56256   5.203   8.574   2.890  0.1296 -0.9730 -0.5491
  408DOPC  H18T56257   5.341   8.487   2.978 -0.5750 -1.8448  1.1145
  408DOPC   C3356258   4.645   7.367   2.580  0.4892  0.1180 -0.5868
  408DOPC   H3X56259   4.750   7.403   2.572  0.5314  0.0738 -0.2189
  408DOPC   H3Y56260   4.623   7.274   2.522 -0.9065 -1.2428  1.9585
  408DOPC   C3456261   4.627   7.320   2.725  0.1293  0.7206  0.9573
  408DOPC   H4X56262   4.526   7.284   2.753  1.0231 -2.6511  0.3664
  408DOPC   H4Y56263   4.653   7.406   2.790  0.6782  2.0440 -0.9068
  408DOPC   C3556264   4.735   7.222   2.765  0.3304 -0.5132 -0.2051
  408DOPC   H5X56265   4.830   7.271   2.739  0.4109 -1.0901 -1.0411
  408DOPC   H5Y56266   4.717   7.131   2.704  0.4955  0.2584 -1.4346
  408DOPC   C3656267   4.727   7.185   2.916 -0.1533  0.0498  0.0003
  408DOPC   H6X56268   4.719   7.277   2.978  1.3016 -1.7303  3.1039
  408DOPC   H6Y56269   4.637   7.124   2.939  0.4892 -1.0643 -0.3563
  408DOPC   C3756270   4.850   7.113   2.964  0.1506 -0.0317 -0.2397
  408DOPC   H7X56271   4.842   7.015   2.913 -0.7576 -0.2331  0.2603
  408DOPC   H7Y56272   4.936   7.179   2.941  0.6623 -0.1856  1.1291
  408DOPC   C3856273   4.845   7.092   3.115  0.6469 -0.8564  0.2182
  408DOPC   H8X56274   4.933   7.030   3.144  1.2687  0.0103  0.2258
  408DOPC   H8Y56275   4.751   7.040   3.143  0.6012 -0.1823  1.3715
  408DOPC   C3956276   4.865   7.221   3.193  0.2030 -0.1716 -0.2511
  408DOPC   H9X56277   4.952   7.279   3.156 -1.2610  0.3910 -3.0999
  408DOPC  C31056278   4.786   7.266   3.291  0.3434 -0.0004 -0.0398
  408DOPC  H10X56279   4.791   7.370   3.327  0.1117  0.0867 -0.2606
  408DOPC  C31156280   4.662   7.212   3.348 -0.3362 -0.2531  0.0141
  408DOPC  H11X56281   4.685   7.112   3.392 -0.5016 -0.2436  0.1203
  408DOPC  H11Y56282   4.583   7.192   3.272 -2.8581  0.5340  2.2963
  408DOPC  C31256283   4.597   7.301   3.462 -0.0216  0.7498 -0.6251
  408DOPC  H12X56284   4.566   7.397   3.415 -0.9985 -0.7395 -3.1985
  408DOPC  H12Y56285   4.675   7.320   3.538 -0.6179 -2.6502  1.0090
  408DOPC  C31356286   4.476   7.222   3.536 -0.4362 -0.1753 -0.1580
  408DOPC  H13X56287   4.498   7.122   3.578 -0.5687 -0.2473 -0.2596
  408DOPC  H13Y56288   4.447   7.284   3.624 -0.8753  1.2775 -1.2852
  408DOPC  C31456289   4.357   7.204   3.445 -0.4184 -0.3629  0.0905
  408DOPC  H14X56290   4.314   7.306   3.433 -1.3423 -0.7060  0.3958
  408DOPC  H14Y56291   4.392   7.168   3.346  2.0240  1.0677  0.3649
  408DOPC  C31556292   4.251   7.106   3.497  0.1348  0.7317  0.2209
  408DOPC  H15X56293   4.303   7.007   3.495  2.0676  1.7036  0.4409
  408DOPC  H15Y56294   4.165   7.100   3.427 -0.1083 -0.8793  0.6032
  408DOPC  C31656295   4.191   7.136   3.635 -0.4226  0.6643  0.3757
  408DOPC  H16X56296   4.264   7.140   3.719  1.1752 -3.0383 -0.6105
  408DOPC  H16Y56297   4.147   7.236   3.618 -0.8697  0.3260 -0.5756
  408DOPC  C31756298   4.073   7.046   3.677 -0.1806  0.1140  0.7025
  408DOPC  H17X56299   4.009   7.101   3.749  1.8242 -1.1339  3.6401
  408DOPC  H17Y56300   4.032   7.026   3.575  1.4562  2.8451 -0.5995
  408DOPC  C31856301   4.108   6.914   3.749 -0.5027  0.2132 -0.4618
  408DOPC  H18X56302   4.136   6.926   3.856  1.3340  0.8356 -0.9949
  408DOPC  H18Y56303   4.016   6.851   3.753 -2.4208  2.7969 -1.2001
  408DOPC  H18Z56304   4.195   6.871   3.696 -0.5166 -1.0433  0.4849
  409DOPC     N56305  10.956   7.977   1.818 -0.2210 -0.0144  0.2338
  409DOPC   C1256306  10.935   7.877   1.701 -0.3338  0.1562  0.5499
  409DOPC  H12A56307  10.920   7.935   1.612  1.8284 -0.1005 -0.0427
  409DOPC  H12B56308  10.846   7.818   1.716  0.9856 -1.7517  1.3176
  409DOPC   C1356309  10.962   7.913   1.954  0.2711  0.2831 -0.2307
  409DOPC  H13A56310  10.972   7.976   2.041 -1.7475 -0.7248  0.7970
  409DOPC  H13B56311  10.869   7.863   1.975  1.0453 -1.5700 -0.9919
  409DOPC  H13C56312  11.044   7.843   1.961  0.7264  0.8544  0.2101
  409DOPC   C1456313  10.842   8.077   1.809 -1.0559 -0.3992 -0.4858
  409DOPC  H14A56314  10.841   8.118   1.709  0.7705  0.8851 -0.0260
  409DOPC  H14B56315  10.743   8.039   1.831 -1.1744  0.0231 -0.2607
  409DOPC  H14C56316  10.859   8.165   1.870  0.3369 -1.3873  0.6132
  409DOPC   C1556317  11.079   8.065   1.787  0.1221  0.4277 -0.5053
  409DOPC  H15A56318  11.163   7.999   1.777 -0.4324 -0.7202  1.6528
  409DOPC  H15B56319  11.098   8.153   1.847 -1.6779  0.2674  0.3967
  409DOPC  H15C56320  11.059   8.104   1.688 -0.2288  0.0959 -0.5657
  409DOPC   C1156321  11.055   7.770   1.678  0.1631 -0.1528 -0.0601
  409DOPC  H11A56322  11.036   7.716   1.583 -1.5320  0.1342  0.0723
  409DOPC  H11B56323  11.148   7.828   1.664  1.3482 -1.8752  0.3621
  409DOPC     P56324  10.965   7.561   1.817 -0.4664 -0.4234 -0.1433
  409DOPC   O1356325  11.029   7.425   1.816  0.4427 -0.1376  0.2498
  409DOPC   O1456326  10.846   7.580   1.732 -0.3800  0.5243  0.6609
  409DOPC   O1256327  11.074   7.680   1.783 -0.0217  0.4754 -0.3970
  409DOPC   O1156328  10.941   7.593   1.971 -0.1512 -0.1364 -0.1689
  409DOPC    C156329  11.049   7.592   2.065  0.5562  0.0071  0.0840
  409DOPC    HA56330  11.107   7.687   2.061 -0.4408  0.5764 -2.0763
  409DOPC    HB56331  11.123   7.510   2.049  0.2035 -0.5323  1.1399
  409DOPC    C256332  11.009   7.572   2.210 -0.3596  1.4269 -0.2940
  409DOPC    HS56333  10.935   7.489   2.213  0.7704  0.3939  0.0737
  409DOPC   O2156334  10.950   7.698   2.257 -0.8717  0.6011  0.1013
  409DOPC   C2156335  10.865   7.688   2.354  0.5161  0.1087  0.2098
  409DOPC   O2256336  10.833   7.587   2.407  0.4720 -0.5283 -0.7256
  409DOPC   C2256337  10.807   7.821   2.389  0.5091  0.7019  0.0470
  409DOPC   H2R56338  10.788   7.869   2.291  3.0437  2.5858  0.3637
  409DOPC   H2S56339  10.878   7.892   2.437  0.6560 -0.0868  1.0220
  409DOPC    C356340  11.127   7.515   2.301 -0.3396  0.9392  0.7248
  409DOPC    HX56341  11.136   7.411   2.262  2.2517  1.0854  0.7740
  409DOPC    HY56342  11.095   7.513   2.407 -1.1504  3.1197  0.5603
  409DOPC   O3156343  11.256   7.580   2.289 -0.6102  0.0108 -0.4978
  409DOPC   C3156344  11.265   7.706   2.340  0.2028 -0.2198  0.0433
  409DOPC   O3256345  11.176   7.771   2.381 -1.2865 -0.6313 -0.0623
  409DOPC   C3256346  11.409   7.751   2.325  0.0467  0.6121 -0.6335
  409DOPC   H2X56347  11.473   7.665   2.295 -3.3299 -2.0052 -0.9728
  409DOPC   H2Y56348  11.427   7.828   2.247 -0.5933  2.5446  1.0582
  409DOPC   C2356349  10.679   7.830   2.474 -0.3437  0.2087 -0.2648
  409DOPC   H3R56350  10.608   7.757   2.430 -0.4122 -0.3020  0.6565
  409DOPC   H3S56351  10.633   7.930   2.488  0.0137  0.3113  0.2042
  409DOPC   C2456352  10.723   7.798   2.623 -0.0457 -1.0691  0.4693
  409DOPC   H4R56353  10.801   7.873   2.647 -0.7045 -0.2286  0.0344
  409DOPC   H4S56354  10.770   7.698   2.639  2.0007 -0.1818  0.2574
  409DOPC   C2556355  10.614   7.822   2.723 -0.5485  0.3129 -0.0045
  409DOPC   H5R56356  10.544   7.736   2.722  1.5148 -1.4635  0.2376
  409DOPC   H5S56357  10.544   7.902   2.694 -0.5570 -0.0444 -1.0116
  409DOPC   C2656358  10.664   7.856   2.868  0.5191 -0.7799  0.1934
  409DOPC   H6R56359  10.684   7.965   2.871  1.9148 -1.0337  1.4666
  409DOPC   H6S56360  10.757   7.796   2.877  1.8219  1.3508  1.6268
  409DOPC   C2756361  10.566   7.809   2.972  0.3150  0.3292  0.0894
  409DOPC   H7R56362  10.564   7.698   2.967  0.0597  0.3375 -0.0319
  409DOPC   H7S56363  10.466   7.853   2.947  0.6407  1.3330  0.4909
  409DOPC   C2856364  10.599   7.842   3.116 -0.1106  0.2141 -0.2163
  409DOPC   H8R56365  10.511   7.810   3.176 -2.0516  1.4003 -2.2370
  409DOPC   H8S56366  10.597   7.953   3.117 -0.2619  0.2100  0.5810
  409DOPC   C2956367  10.731   7.793   3.168 -0.2581  0.6091  0.8002
  409DOPC   H9R56368  10.761   7.696   3.125 -0.4460 -0.1950  2.4043
  409DOPC  C21056369  10.814   7.858   3.245 -0.0506  0.8710 -0.3953
  409DOPC  H10R56370  10.899   7.806   3.293 -0.8225 -1.4278 -1.3838
  409DOPC  C21156371  10.774   7.987   3.310  0.1586  0.1515 -0.4358
  409DOPC  H11R56372  10.749   8.061   3.231  2.3295  0.6436 -0.7255
  409DOPC  H11S56373  10.861   8.026   3.368 -0.1822 -1.0503  0.9491
  409DOPC  C21256374  10.682   7.986   3.426  0.3814 -0.3950  0.0309
  409DOPC  H12R56375  10.588   7.940   3.388 -0.5861  1.2906  0.2973
  409DOPC  H12S56376  10.650   8.088   3.456 -1.4283 -1.5061  2.2473
  409DOPC  C21356377  10.729   7.914   3.552  0.5731  1.0831  0.4133
  409DOPC  H13R56378  10.834   7.940   3.577  1.2631  2.8616 -3.5299
  409DOPC  H13S56379  10.707   7.808   3.527 -2.0314  2.0267 -1.7698
  409DOPC  C21456380  10.640   7.945   3.673 -0.3422 -0.6577 -0.8328
  409DOPC  H14R56381  10.529   7.938   3.676 -0.4744  0.9965  1.6465
  409DOPC  H14S56382  10.657   8.051   3.701  0.0362 -0.5443 -1.4949
  409DOPC  C21556383  10.676   7.873   3.798  0.2225  0.0526 -0.1360
  409DOPC  H15R56384  10.782   7.897   3.822 -0.1260 -0.4715  2.0903
  409DOPC  H15S56385  10.679   7.764   3.774 -2.8980 -0.4779  1.3185
  409DOPC  C21656386  10.583   7.898   3.918 -0.4707  0.0399  0.0606
  409DOPC  H16R56387  10.483   7.863   3.884 -1.7504  0.6819  2.8523
  409DOPC  H16S56388  10.584   8.008   3.925 -1.4099  0.0808 -0.2848
  409DOPC  C21756389  10.639   7.841   4.048  0.0324  0.0789 -0.7434
  409DOPC  H17R56390  10.587   7.882   4.138  0.7832  1.8674 -1.0881
  409DOPC  H17S56391  10.747   7.867   4.052 -0.0282  0.2682 -0.1989
  409DOPC  C21856392  10.637   7.693   4.077 -0.0752  1.0701  0.0147
  409DOPC  H18R56393  10.690   7.647   3.990  0.0635  0.9102  0.1843
  409DOPC  H18S56394  10.536   7.647   4.077  0.6651 -0.6596 -0.5528
  409DOPC  H18T56395  10.693   7.674   4.171 -0.6374  1.0968  0.3590
  409DOPC   C3356396  11.471   7.806   2.457  0.6874  0.4967  0.1252
  409DOPC   H3X56397  11.395   7.866   2.512  0.9060  0.8518  0.0440
  409DOPC   H3Y56398  11.545   7.885   2.435  1.3704 -0.3358 -0.6228
  409DOPC   C3456399  11.540   7.697   2.546  0.5258  0.2332  0.4688
  409DOPC   H4X56400  11.568   7.750   2.639 -0.0475 -2.3523  2.1925
  409DOPC   H4Y56401  11.634   7.662   2.499  0.7808  0.2650  0.9480
  409DOPC   C3556402  11.458   7.575   2.580  0.3099 -0.0394 -0.0887
  409DOPC   H5X56403  11.454   7.491   2.507  0.3007 -0.1930  0.0875
  409DOPC   H5Y56404  11.350   7.599   2.591  0.0921 -0.0862 -1.8336
  409DOPC   C3656405  11.478   7.500   2.708  0.1519  0.0528 -0.3195
  409DOPC   H6X56406  11.448   7.563   2.795  0.7585  0.0793 -0.1284
  409DOPC   H6Y56407  11.412   7.411   2.718  0.6266 -0.2179  0.5033
  409DOPC   C3756408  11.621   7.456   2.740 -0.1762  0.3225 -0.1945
  409DOPC   H7X56409  11.649   7.410   2.643  1.6346  2.5852 -0.8516
  409DOPC   H7Y56410  11.689   7.542   2.760  0.4413 -0.0778 -0.5580
  409DOPC   C3856411  11.629   7.346   2.853 -0.5602 -0.4412 -0.4734
  409DOPC   H8X56412  11.726   7.292   2.848  0.4597  1.1950  0.7557
  409DOPC   H8Y56413  11.548   7.273   2.835 -1.2977  0.0375  0.7938
  409DOPC   C3956414  11.610   7.408   2.989  0.7848 -0.6811 -0.0135
  409DOPC   H9X56415  11.695   7.456   3.041  1.4014 -1.4698 -0.2831
  409DOPC  C31056416  11.496   7.413   3.058 -0.1711 -0.0057 -0.2831
  409DOPC  H10X56417  11.493   7.448   3.162 -0.5024 -1.3837  0.1866
  409DOPC  C31156418  11.369   7.343   3.015 -0.4212 -0.1146 -0.4030
  409DOPC  H11X56419  11.398   7.236   3.017  1.2348  0.3148  0.4433
  409DOPC  H11Y56420  11.327   7.363   2.914 -0.2250  0.6988 -0.3345
  409DOPC  C31256421  11.253   7.371   3.109  0.4540  0.4461 -0.1603
  409DOPC  H12X56422  11.284   7.307   3.194  2.2787  0.9003 -0.4214
  409DOPC  H12Y56423  11.162   7.320   3.073  0.2881 -0.4357  1.4133
  409DOPC  C31356424  11.233   7.518   3.160  0.1824 -0.2793 -0.2580
  409DOPC  H13X56425  11.323   7.545   3.219 -0.9486  0.8873  1.0253
  409DOPC  H13Y56426  11.236   7.584   3.071 -2.0110  0.0051 -0.1863
  409DOPC  C31456427  11.100   7.546   3.233 -0.3054 -0.0808 -0.1180
  409DOPC  H14X56428  11.095   7.649   3.276 -0.5133  0.6680 -1.8406
  409DOPC  H14Y56429  11.020   7.548   3.156  0.5528  1.0372 -1.0140
  409DOPC  C31556430  11.068   7.439   3.334 -0.4209 -1.0064 -0.3729
  409DOPC  H15X56431  11.159   7.435   3.399 -0.6892  1.2527  0.2275
  409DOPC  H15Y56432  11.053   7.344   3.279 -0.3461 -1.1421 -0.1606
  409DOPC  C31656433  10.952   7.466   3.421  0.3034 -0.0085  0.5847
  409DOPC  H16X56434  10.969   7.393   3.503  0.5182  0.9059  1.3739
  409DOPC  H16Y56435  10.945   7.564   3.473 -1.0122  1.9310 -2.9094
  409DOPC  C31756436  10.811   7.434   3.366  0.8687 -0.3709 -0.3175
  409DOPC  H17X56437  10.800   7.508   3.284  2.0033 -1.8102 -1.8308
  409DOPC  H17Y56438  10.810   7.330   3.325 -0.3042 -1.3041  1.8950
  409DOPC  C31856439  10.700   7.446   3.473  0.8269  0.1219 -0.3160
  409DOPC  H18X56440  10.723   7.402   3.572 -0.1282 -1.4449 -0.7593
  409DOPC  H18Y56441  10.660   7.549   3.487  0.3098 -0.2122  0.7721
  409DOPC  H18Z56442  10.603   7.400   3.443 -0.5622  0.9629  2.4818
  410DOPC     N56443   9.663   0.774   1.907 -0.1844  0.0942  0.2766
  410DOPC   C1256444   9.782   0.772   2.002 -0.5032 -0.0748  0.3680
  410DOPC  H12A56445   9.817   0.874   2.001  2.1650 -0.9003  0.0464
  410DOPC  H12B56446   9.859   0.712   1.955 -0.5530  0.0582  0.1170
  410DOPC   C1356447   9.651   0.639   1.842  0.2305 -0.3521  0.6384
  410DOPC  H13A56448   9.588   0.642   1.755 -0.3502  2.4061  1.0692
  410DOPC  H13B56449   9.748   0.606   1.807  1.1107  1.3193  1.3405
  410DOPC  H13C56450   9.615   0.564   1.910 -3.5482  1.1228  0.4992
  410DOPC   C1456451   9.675   0.874   1.792  0.6403  0.4240  0.1256
  410DOPC  H14A56452   9.681   0.974   1.833 -1.2737  0.0485  1.5070
  410DOPC  H14B56453   9.762   0.853   1.733  1.3291  0.0850  1.2400
  410DOPC  H14C56454   9.589   0.883   1.727  1.4252 -0.7545 -1.1284
  410DOPC   C1556455   9.539   0.794   1.987  0.5627 -1.0888  1.3553
  410DOPC  H15A56456   9.555   0.727   2.070  2.6705 -2.9261 -0.4137
  410DOPC  H15B56457   9.453   0.766   1.928  1.7530  0.3725 -1.2250
  410DOPC  H15C56458   9.525   0.893   2.029  1.8215  0.7139 -2.0421
  410DOPC   C1156459   9.756   0.739   2.149  0.0840  0.3112  0.7512
  410DOPC  H11A56460   9.858   0.748   2.190  1.1729  2.2811 -2.1210
  410DOPC  H11B56461   9.689   0.819   2.187 -2.5375 -0.7423 -1.2633
  410DOPC     P56462   9.761   0.473   2.188 -0.1489  0.2036 -0.1915
  410DOPC   O1356463   9.805   0.431   2.049  0.5391 -0.8459  0.2915
  410DOPC   O1456464   9.660   0.384   2.255 -0.5583 -0.1358  0.3639
  410DOPC   O1256465   9.690   0.611   2.169 -0.0005  0.1427 -0.2162
  410DOPC   O1156466   9.891   0.502   2.277  0.0190 -0.2636 -0.1565
  410DOPC    C156467   9.878   0.592   2.395 -0.1299  0.1204  0.7795
  410DOPC    HA56468   9.777   0.629   2.424  0.5537  2.7385  0.0603
  410DOPC    HB56469   9.936   0.684   2.372 -1.5842  1.3497  1.8845
  410DOPC    C256470   9.941   0.518   2.513 -0.1526 -0.3024  0.2107
  410DOPC    HS56471   9.962   0.599   2.586  0.8945 -0.7071  0.3731
  410DOPC   O2156472  10.055   0.435   2.469 -0.6975 -0.3727 -0.3421
  410DOPC   C2156473  10.171   0.498   2.476  0.5031  0.5566 -0.0064
  410DOPC   O2256474  10.187   0.613   2.520 -0.2630 -0.2763 -0.0154
  410DOPC   C2256475  10.285   0.408   2.441 -0.3738 -0.3455  0.4020
  410DOPC   H2R56476  10.373   0.472   2.418 -1.3469  0.7452 -0.3892
  410DOPC   H2S56477  10.257   0.343   2.355  0.4107 -1.4106  0.9159
  410DOPC    C356478   9.842   0.424   2.588  1.0388  0.2234 -0.3364
  410DOPC    HX56479   9.782   0.348   2.533 -2.3037  0.4205  2.6305
  410DOPC    HY56480   9.767   0.498   2.624  0.6996  0.0781 -0.7342
  410DOPC   O3156481   9.911   0.371   2.705  0.0163  0.1891 -0.1394
  410DOPC   C3156482   9.935   0.234   2.707 -0.0872  0.2049  0.5789
  410DOPC   O3256483   9.906   0.161   2.613  0.1906  0.5756 -0.0279
  410DOPC   C3256484   9.973   0.188   2.848 -0.2419 -0.9116  0.6514
  410DOPC   H2X56485  10.079   0.222   2.855 -0.7458  0.5930  1.3844
  410DOPC   H2Y56486   9.905   0.241   2.917  1.5931 -1.7332  3.2193
  410DOPC   C2356487  10.307   0.319   2.567 -0.1781  0.5676 -0.7575
  410DOPC   H3R56488  10.396   0.255   2.547  2.7225  4.3380 -1.1038
  410DOPC   H3S56489  10.222   0.248   2.575  0.2191 -0.1398 -2.3923
  410DOPC   C2456490  10.339   0.394   2.701  0.2790  0.7754 -0.6012
  410DOPC   H4R56491  10.244   0.428   2.749 -0.5882  1.6090 -2.7486
  410DOPC   H4S56492  10.390   0.487   2.668  1.1377  0.9778  1.1812
  410DOPC   C2556493  10.441   0.322   2.794  0.0554 -0.6857 -0.0164
  410DOPC   H5R56494  10.545   0.336   2.758  0.5897  0.0941  1.6804
  410DOPC   H5S56495  10.430   0.213   2.808 -0.8200 -0.5045  0.8395
  410DOPC   C2656496  10.444   0.382   2.936 -0.3402 -0.3093  0.7408
  410DOPC   H6R56497  10.350   0.355   2.988 -1.7295  1.4288 -0.7494
  410DOPC   H6S56498  10.447   0.493   2.931 -1.0326 -0.2486  1.4257
  410DOPC   C2756499  10.556   0.335   3.026 -0.2610  0.2720  0.2271
  410DOPC   H7R56500  10.649   0.374   2.978 -0.3975  0.3052 -0.0132
  410DOPC   H7S56501  10.577   0.227   3.010  3.6029  0.7013  1.4023
  410DOPC   C2856502  10.552   0.378   3.168 -0.0136 -0.6814  0.1689
  410DOPC   H8R56503  10.466   0.330   3.218  0.2764 -1.7329 -0.3096
  410DOPC   H8S56504  10.537   0.488   3.169  0.6718 -0.5775  0.0295
  410DOPC   C2956505  10.683   0.363   3.231 -0.1004 -0.1712 -1.0694
  410DOPC   H9R56506  10.744   0.455   3.231  0.0554 -0.2032  1.4879
  410DOPC  C21056507  10.709   0.267   3.321 -0.4200 -0.6160  0.9957
  410DOPC  H10R56508  10.803   0.265   3.378  0.4843 -1.4149 -0.4619
  410DOPC  C21156509  10.624   0.150   3.334 -0.4936  0.4062  0.7840
  410DOPC  H11R56510  10.685   0.057   3.334 -2.0202 -0.6545 -0.4151
  410DOPC  H11S56511  10.545   0.138   3.257  2.0246  0.7109 -2.0473
  410DOPC  C21256512  10.545   0.147   3.465 -0.5968 -0.2088  0.3288
  410DOPC  H12R56513  10.476   0.060   3.455  0.0047 -0.7513  0.8365
  410DOPC  H12S56514  10.481   0.236   3.481  0.5109  0.2319  2.6928
  410DOPC  C21356515  10.624   0.107   3.590 -0.2747 -0.2007 -0.1162
  410DOPC  H13R56516  10.643   0.199   3.650 -3.0114  0.0613  0.4720
  410DOPC  H13S56517  10.720   0.063   3.555 -0.9572 -0.7641 -1.3317
  410DOPC  C21456518  10.558   0.003   3.685  0.6526  0.2381 -0.0088
  410DOPC  H14R56519  10.511  -0.078   3.626 -0.7032 -0.7727  2.3481
  410DOPC  H14S56520  10.480   0.051   3.747  2.2027  1.0857  1.3571
  410DOPC  C21556521  10.654  -0.053   3.788  0.8744 -1.2927 -0.5232
  410DOPC  H15R56522  10.712   0.031   3.832  0.7363 -1.6878  0.4371
  410DOPC  H15S56523  10.735  -0.120   3.755  0.7749 -1.8926  0.4173
  410DOPC  C21656524  10.586  -0.125   3.909  0.9805 -0.0718 -0.5305
  410DOPC  H16R56525  10.533  -0.206   3.855  1.5728  0.2504 -1.6229
  410DOPC  H16S56526  10.518  -0.051   3.955  2.5197  0.5762  0.8160
  410DOPC  C21756527  10.693  -0.186   4.005 -0.0191 -0.1138  0.2342
  410DOPC  H17R56528  10.749  -0.101   4.049 -1.6972  1.1018  0.1213
  410DOPC  H17S56529  10.759  -0.244   3.938  2.0719  1.7612  0.5613
  410DOPC  C21856530  10.635  -0.265   4.128  0.3738  0.3459  0.5888
  410DOPC  H18R56531  10.719  -0.293   4.196  0.3125 -3.6551 -0.7058
  410DOPC  H18S56532  10.602  -0.364   4.088 -0.7238  1.3182 -0.9973
  410DOPC  H18T56533  10.558  -0.204   4.178  0.8406 -0.0715  1.8849
  410DOPC   C3356534   9.968   0.030   2.872  0.5990 -0.2247 -0.6726
  410DOPC   H3X56535  10.013  -0.021   2.783  2.5698  0.9222 -0.3975
  410DOPC   H3Y56536   9.863  -0.005   2.884 -0.0071  1.2762 -1.2895
  410DOPC   C3456537  10.046  -0.014   2.998  0.6267  0.1833  0.1827
  410DOPC   H4X56538  10.154   0.002   2.979  0.9262 -0.7220  1.0567
  410DOPC   H4Y56539  10.028  -0.123   3.007 -2.1778  0.6559  1.4522
  410DOPC   C3556540  10.013   0.052   3.137 -0.0147 -0.5036  0.3425
  410DOPC   H5X56541   9.913   0.014   3.165  0.2026  1.1508  4.0200
  410DOPC   H5Y56542  10.013   0.162   3.124 -0.3462 -0.8642 -4.0653
  410DOPC   C3656543  10.106   0.003   3.252  0.3197  1.2344 -0.0003
  410DOPC   H6X56544  10.117  -0.108   3.257  1.9814  1.4264  1.4077
  410DOPC   H6Y56545  10.210   0.033   3.226  0.9173  0.1583  1.0083
  410DOPC   C3756546  10.065   0.047   3.392 -0.6263  1.2958 -0.2534
  410DOPC   H7X56547   9.961   0.013   3.410 -0.6248  0.9728 -0.8366
  410DOPC   H7Y56548  10.125  -0.004   3.471 -0.2585 -0.6150 -1.6909
  410DOPC   C3856549  10.052   0.202   3.410  0.0840  0.2827  0.0138
  410DOPC   H8X56550  10.018   0.202   3.516 -2.2406 -2.0351 -0.6185
  410DOPC   H8Y56551   9.962   0.238   3.357 -0.6516 -2.0392 -0.4352
  410DOPC   C3956552  10.179   0.280   3.398 -0.6515 -0.3340 -0.4754
  410DOPC   H9X56553  10.257   0.245   3.467 -0.7947  0.6241  0.1929
  410DOPC  C31056554  10.204   0.384   3.306  0.1607  0.9938 -0.6881
  410DOPC  H10X56555  10.294   0.443   3.328 -1.3023  1.9987  3.7455
  410DOPC  C31156556  10.110   0.440   3.202 -0.7131  0.1999  0.2694
  410DOPC  H11X56557  10.004   0.442   3.237 -0.4257  1.8707  1.1255
  410DOPC  H11Y56558  10.111   0.378   3.110 -0.4507  1.0086 -0.2732
  410DOPC  C31256559  10.147   0.585   3.158 -0.1526  0.0581  0.0963
  410DOPC  H12X56560  10.257   0.601   3.158 -0.2183  0.5207 -0.5732
  410DOPC  H12Y56561  10.117   0.649   3.244  1.3550  1.3198 -0.2722
  410DOPC  C31356562  10.086   0.632   3.030 -0.0827 -0.6055  0.0014
  410DOPC  H13X56563  10.131   0.582   2.941 -1.9062 -0.0007 -1.3080
  410DOPC  H13Y56564   9.979   0.609   3.045  0.4528 -2.6287  1.0900
  410DOPC  C31456565  10.095   0.790   3.008 -0.3948  0.1501 -0.5554
  410DOPC  H14X56566  10.032   0.835   3.088  0.1307  0.2592 -0.1972
  410DOPC  H14Y56567  10.194   0.836   3.023 -0.9700  1.2197  0.0676
  410DOPC  C31556568  10.032   0.830   2.875  0.6793 -0.2010  0.9198
  410DOPC  H15X56569  10.078   0.782   2.786 -1.4358  0.1710 -0.4193
  410DOPC  H15Y56570  10.034   0.941   2.866  2.4885 -0.3023 -0.8772
  410DOPC  C31656571   9.882   0.803   2.859 -0.3824  0.3213 -0.3989
  410DOPC  H16X56572   9.866   0.693   2.865  1.3790  0.0623  0.2000
  410DOPC  H16Y56573   9.820   0.855   2.935 -0.8868 -1.4072  0.4201
  410DOPC  C31756574   9.832   0.851   2.724 -0.6312  0.0458 -0.1743
  410DOPC  H17X56575   9.846   0.961   2.716 -0.0778 -0.1085 -1.6997
  410DOPC  H17Y56576   9.895   0.808   2.644  0.2311 -0.7214  0.8777
  410DOPC  C31856577   9.692   0.816   2.678  0.1726 -0.5040 -0.3216
  410DOPC  H18X56578   9.679   0.710   2.649 -2.6775 -0.1470 -0.6128
  410DOPC  H18Y56579   9.616   0.835   2.757 -0.3319  0.4803 -1.0214
  410DOPC  H18Z56580   9.660   0.889   2.601  0.0829  0.3011  0.4593
  411DOPC     N56581   1.535   2.299   1.919  0.1408  0.2121  0.3139
  411DOPC   C1256582   1.429   2.242   1.818 -1.4257 -0.1092  0.1585
  411DOPC  H12A56583   1.448   2.282   1.720 -0.7314 -0.8377 -0.0213
  411DOPC  H12B56584   1.327   2.257   1.852 -2.3648 -3.4850 -0.7700
  411DOPC   C1356585   1.676   2.260   1.893 -0.7112  0.6265 -0.0142
  411DOPC  H13A56586   1.692   2.153   1.903  3.4794  1.0394 -0.2684
  411DOPC  H13B56587   1.705   2.279   1.791 -2.9855  1.6602 -0.5215
  411DOPC  H13C56588   1.737   2.311   1.967 -0.3802  1.0474 -0.5722
  411DOPC   C1456589   1.502   2.262   2.062 -0.2225 -0.0789  0.2676
  411DOPC  H14A56590   1.508   2.155   2.079 -0.7220 -0.3906 -1.3521
  411DOPC  H14B56591   1.584   2.295   2.125  0.7002 -2.5277  0.4686
  411DOPC  H14C56592   1.412   2.312   2.093 -0.4879 -0.6774  0.4745
  411DOPC   C1556593   1.537   2.449   1.904  0.5911  0.7803 -0.2106
  411DOPC  H15A56594   1.612   2.494   1.967 -0.9387  0.2944  2.0842
  411DOPC  H15B56595   1.434   2.483   1.904 -0.3885 -1.6938 -3.4171
  411DOPC  H15C56596   1.562   2.467   1.800  1.0822 -1.2018 -0.4638
  411DOPC   C1156597   1.434   2.086   1.796 -0.3705 -0.5953  0.2369
  411DOPC  H11A56598   1.367   2.071   1.709 -0.3042  2.4084 -0.4221
  411DOPC  H11B56599   1.533   2.052   1.757 -0.5252  0.3299 -1.0092
  411DOPC     P56600   1.256   1.961   1.953  0.2155  0.0989  0.3458
  411DOPC   O1356601   1.244   1.813   1.945  0.2198 -0.3424 -0.0424
  411DOPC   O1456602   1.158   2.039   1.873 -0.3119  0.4199 -0.0001
  411DOPC   O1256603   1.396   2.006   1.910 -0.0345 -0.0023 -0.2312
  411DOPC   O1156604   1.264   2.008   2.106  0.1135 -0.7260  0.4169
  411DOPC    C156605   1.336   1.944   2.211  0.2241  0.5352 -0.1236
  411DOPC    HA56606   1.418   2.013   2.239 -1.1789  2.1681  0.1246
  411DOPC    HB56607   1.383   1.850   2.175 -0.1618  0.4483 -0.4063
  411DOPC    C256608   1.249   1.935   2.341  0.7341  0.1958  0.2353
  411DOPC    HS56609   1.186   1.845   2.321  1.2135 -0.4647  1.5935
  411DOPC   O2156610   1.171   2.054   2.354  0.7200 -0.4101 -0.6981
  411DOPC   C2156611   1.061   2.041   2.414  0.2166 -0.6054 -0.6015
  411DOPC   O2256612   1.005   1.940   2.448  0.1163  0.7093  0.4298
  411DOPC   C2256613   1.021   2.183   2.469 -0.4119  0.8081 -0.4560
  411DOPC   H2R56614   0.968   2.226   2.382 -1.3257 -0.4296 -0.5436
  411DOPC   H2S56615   1.115   2.233   2.499 -0.2679 -0.1548  0.8185
  411DOPC    C356616   1.332   1.904   2.466 -0.4324  0.0838  0.1713
  411DOPC    HX56617   1.406   1.986   2.475 -0.8025  0.4545 -0.1243
  411DOPC    HY56618   1.395   1.813   2.454  0.2335  0.4200  1.0002
  411DOPC   O3156619   1.258   1.900   2.597 -0.1216  0.2929  0.1467
  411DOPC   C3156620   1.229   1.777   2.631 -0.8390 -0.1645  0.2793
  411DOPC   O3256621   1.259   1.676   2.567 -0.1087 -0.3651 -0.2478
  411DOPC   C3256622   1.171   1.768   2.768  0.1763 -0.0828  0.1137
  411DOPC   H2X56623   1.103   1.851   2.800 -0.2310 -0.7058  0.8830
  411DOPC   H2Y56624   1.118   1.671   2.767  1.0026 -0.5344 -0.5700
  411DOPC   C2356625   0.933   2.168   2.596  0.2115  0.2887 -0.6274
  411DOPC   H3R56626   0.990   2.103   2.667 -0.3979  1.0928  0.6396
  411DOPC   H3S56627   0.845   2.106   2.566 -0.1586  0.2166  0.5166
  411DOPC   C2456628   0.891   2.297   2.667  0.9482  0.0469 -0.3025
  411DOPC   H4R56629   0.838   2.363   2.595 -1.5031  0.1898  1.4904
  411DOPC   H4S56630   0.980   2.352   2.702 -0.2793  0.6968  1.9904
  411DOPC   C2556631   0.793   2.268   2.781  0.5203 -0.8200 -0.4182
  411DOPC   H5R56632   0.714   2.192   2.763  1.3551 -1.9281  0.4619
  411DOPC   H5S56633   0.747   2.366   2.807  2.3397 -0.0549  0.0672
  411DOPC   C2656634   0.859   2.226   2.920 -0.0847 -0.1614 -0.0621
  411DOPC   H6R56635   0.787   2.253   3.000  0.2033 -0.7398  0.4051
  411DOPC   H6S56636   0.947   2.292   2.932  1.0973 -1.9399  1.6039
  411DOPC   C2756637   0.891   2.085   2.929 -0.0179 -0.8667  0.3121
  411DOPC   H7R56638   0.991   2.068   2.884  0.1315  0.8269 -0.0689
  411DOPC   H7S56639   0.815   2.021   2.879  1.4483 -1.8586 -0.7222
  411DOPC   C2856640   0.907   2.042   3.078 -0.8000  0.1309  0.0274
  411DOPC   H8R56641   0.924   1.933   3.064 -0.0606  0.4570 -2.0404
  411DOPC   H8S56642   0.817   2.061   3.140 -0.3549  0.6607  0.5214
  411DOPC   C2956643   1.018   2.096   3.167  0.4570 -0.3556  0.3559
  411DOPC   H9R56644   1.100   2.132   3.103  0.3651 -0.3698  0.2307
  411DOPC  C21056645   1.028   2.110   3.301 -0.3729  0.1108 -0.2274
  411DOPC  H10R56646   1.118   2.152   3.348 -0.2616 -0.3387 -0.0280
  411DOPC  C21156647   0.921   2.066   3.398  0.6476  0.0197 -0.2411
  411DOPC  H11R56648   0.823   2.057   3.347  0.2552  0.9291  0.3204
  411DOPC  H11S56649   0.906   2.145   3.475 -0.1000 -0.8664  0.5483
  411DOPC  C21256650   0.962   1.933   3.457 -0.0490 -0.4789 -0.1692
  411DOPC  H12R56651   1.071   1.925   3.476  0.3046 -0.8240 -2.0677
  411DOPC  H12S56652   0.948   1.854   3.380  1.7860 -0.5928 -0.4417
  411DOPC  C21356653   0.881   1.896   3.582  0.1200 -0.2030  0.5022
  411DOPC  H13R56654   0.831   1.798   3.566 -0.5046  0.0004  1.1627
  411DOPC  H13S56655   0.794   1.964   3.593 -1.6768 -2.2676 -0.3311
  411DOPC  C21456656   0.953   1.896   3.720 -0.0295  0.3015  0.6422
  411DOPC  H14R56657   0.998   1.997   3.730  0.7631  0.1383 -0.9339
  411DOPC  H14S56658   1.035   1.821   3.727 -1.0164 -0.6614  2.5751
  411DOPC  C21556659   0.853   1.874   3.838 -0.1220 -0.2768 -0.1336
  411DOPC  H15R56660   0.758   1.924   3.810  0.5922  0.6548 -0.9830
  411DOPC  H15S56661   0.906   1.936   3.914 -0.4295  1.5256 -1.3202
  411DOPC  C21656662   0.823   1.734   3.895 -0.6885  0.2205  0.5147
  411DOPC  H16R56663   0.904   1.661   3.873 -0.9575  0.6474 -2.2170
  411DOPC  H16S56664   0.731   1.692   3.849 -0.0060 -0.4311 -0.3034
  411DOPC  C21756665   0.804   1.727   4.049 -0.0758 -0.4423 -0.5100
  411DOPC  H17R56666   0.728   1.798   4.086  1.6122  1.0407  0.2761
  411DOPC  H17S56667   0.900   1.756   4.097 -1.0669  0.8242  0.7584
  411DOPC  C21856668   0.775   1.582   4.097  0.3837 -0.6099 -0.2021
  411DOPC  H18R56669   0.681   1.541   4.055 -0.9414  0.9549  1.1010
  411DOPC  H18S56670   0.768   1.578   4.208  1.5697  1.0697 -0.0346
  411DOPC  H18T56671   0.862   1.521   4.066  0.8063  1.4094 -3.4432
  411DOPC   C3356672   1.273   1.744   2.882  0.3347  0.3777  0.1087
  411DOPC   H3X56673   1.336   1.835   2.878  0.2947  0.6666  3.2271
  411DOPC   H3Y56674   1.343   1.658   2.876  0.9732  0.7520  1.6633
  411DOPC   C3456675   1.202   1.744   3.019  0.1242  0.3552 -0.0149
  411DOPC   H4X56676   1.151   1.645   3.020  1.0713 -0.1785 -1.5803
  411DOPC   H4Y56677   1.123   1.822   3.022  0.6849  0.9171  0.5064
  411DOPC   C3556678   1.303   1.763   3.135 -0.0689  0.5748  0.0007
  411DOPC   H5X56679   1.244   1.772   3.228  0.7909  0.6841  0.5467
  411DOPC   H5Y56680   1.341   1.866   3.115  0.2418 -0.0118 -2.9022
  411DOPC   C3656681   1.415   1.659   3.139  0.0330  0.4398  0.6676
  411DOPC   H6X56682   1.387   1.582   3.064 -1.6666  2.4083 -0.8520
  411DOPC   H6Y56683   1.512   1.707   3.113  0.6406  0.7254  3.1560
  411DOPC   C3756684   1.426   1.583   3.264  0.7524  0.1676 -0.1138
  411DOPC   H7X56685   1.511   1.515   3.242  0.1169 -0.8343  0.4634
  411DOPC   H7Y56686   1.448   1.639   3.357 -2.1610 -1.5140  1.7352
  411DOPC   C3856687   1.300   1.497   3.295  0.1130 -0.6220  0.7796
  411DOPC   H8X56688   1.257   1.470   3.197  2.2918 -3.8141  0.5354
  411DOPC   H8Y56689   1.225   1.560   3.347  1.8582  1.1353  1.2958
  411DOPC   C3956690   1.320   1.376   3.387  0.1656 -1.1122  0.4330
  411DOPC   H9X56691   1.320   1.284   3.327 -0.0571  0.0997 -1.5070
  411DOPC  C31056692   1.298   1.376   3.520 -0.4029  0.6787 -1.0132
  411DOPC  H10X56693   1.315   1.281   3.573  1.4451  0.5910 -1.6684
  411DOPC  C31156694   1.277   1.494   3.615  0.2926 -0.5822 -0.8371
  411DOPC  H11X56695   1.289   1.591   3.562 -3.4609 -0.7071 -2.2446
  411DOPC  H11Y56696   1.349   1.507   3.698 -2.8123  1.6248  1.7234
  411DOPC  C31256697   1.142   1.514   3.689 -0.2796  0.7083 -0.6764
  411DOPC  H12X56698   1.055   1.517   3.620  0.9742  1.0474 -2.3097
  411DOPC  H12Y56699   1.146   1.607   3.749  1.1609 -0.2246  0.7482
  411DOPC  C31356700   1.103   1.395   3.789  0.0941 -0.3449 -0.0811
  411DOPC  H13X56701   1.004   1.422   3.832 -0.0926 -2.1619  0.7317
  411DOPC  H13Y56702   1.089   1.298   3.737  1.4945 -0.1984 -0.7892
  411DOPC  C31456703   1.185   1.384   3.918 -0.5822 -0.0667  0.5087
  411DOPC  H14X56704   1.209   1.489   3.942  0.7903 -0.0975 -0.5818
  411DOPC  H14Y56705   1.121   1.346   4.000 -0.4272 -1.4980  0.0026
  411DOPC  C31556706   1.321   1.310   3.904 -0.2116  0.2383  0.1178
  411DOPC  H15X56707   1.380   1.370   3.832 -0.2621 -2.6621 -2.5318
  411DOPC  H15Y56708   1.310   1.212   3.853 -0.0575  0.9125 -1.2656
  411DOPC  C31656709   1.396   1.289   4.041  0.5923 -0.2441  0.5873
  411DOPC  H16X56710   1.452   1.384   4.059 -0.4923  0.9992 -2.1040
  411DOPC  H16Y56711   1.322   1.278   4.122  2.0857 -1.2785  1.8626
  411DOPC  C31756712   1.508   1.184   4.030 -0.5031  1.1453  0.2670
  411DOPC  H17X56713   1.587   1.207   3.955  0.5563  0.7793  1.2361
  411DOPC  H17Y56714   1.572   1.187   4.120  1.0386  1.6181 -0.8022
  411DOPC  C31856715   1.461   1.040   4.014  0.1805 -0.2216 -0.0735
  411DOPC  H18X56716   1.417   0.998   4.107 -0.3420  0.9368  0.2129
  411DOPC  H18Y56717   1.387   1.026   3.932 -0.2908  1.7405 -0.0387
  411DOPC  H18Z56718   1.547   0.972   3.996  0.2816 -0.9647  2.7379
  412DOPC     N56719   0.399   0.440   1.507  0.0770  0.5946  1.0730
  412DOPC   C1256720   0.439   0.502   1.640 -0.3337 -0.1130 -0.0967
  412DOPC  H12A56721   0.411   0.606   1.647 -0.2226 -0.0890 -0.0230
  412DOPC  H12B56722   0.546   0.494   1.643 -0.3042 -0.0910 -0.8289
  412DOPC   C1356723   0.482   0.481   1.392 -0.0360 -0.2138  0.6963
  412DOPC  H13A56724   0.586   0.485   1.420  0.0215 -0.4237  0.5132
  412DOPC  H13B56725   0.477   0.410   1.311 -1.2744  0.3132  0.2705
  412DOPC  H13C56726   0.464   0.582   1.358  2.0659 -0.1523 -0.3731
  412DOPC   C1456727   0.254   0.474   1.478 -0.2361  0.0526  0.5280
  412DOPC  H14A56728   0.223   0.435   1.382  0.2237  1.8405 -0.4022
  412DOPC  H14B56729   0.195   0.439   1.561 -0.4082  2.3410  1.4482
  412DOPC  H14C56730   0.231   0.579   1.472 -1.6335 -0.2468  0.1951
  412DOPC   C1556731   0.424   0.293   1.524 -0.1503 -0.1820 -0.0065
  412DOPC  H15A56732   0.527   0.292   1.556 -0.0805  1.1769 -0.1496
  412DOPC  H15B56733   0.423   0.233   1.435 -0.1997 -3.3520  1.9628
  412DOPC  H15C56734   0.349   0.251   1.590  0.0180  0.8638  0.8772
  412DOPC   C1156735   0.376   0.445   1.766 -0.0205  0.5769 -0.3600
  412DOPC  H11A56736   0.408   0.341   1.783 -0.4548  0.4559 -0.2663
  412DOPC  H11B56737   0.415   0.505   1.851 -1.6188 -1.1657  1.7227
  412DOPC     P56738   0.134   0.540   1.839  0.2668  0.1318  0.1625
  412DOPC   O1356739   0.009   0.467   1.859  0.2590 -0.4482  0.0788
  412DOPC   O1456740   0.128   0.666   1.765  0.7201 -0.1677 -0.6577
  412DOPC   O1256741   0.229   0.438   1.765  0.6167  0.1436  0.1505
  412DOPC   O1156742   0.212   0.559   1.971 -0.2776  0.2209  0.1633
  412DOPC    C156743   0.197   0.480   2.094  0.8733 -0.4011  0.2589
  412DOPC    HA56744   0.281   0.492   2.166  0.3478 -0.4647  0.8954
  412DOPC    HB56745   0.187   0.369   2.094  1.8269 -0.5035 -1.0651
  412DOPC    C256746   0.060   0.522   2.167  0.6569  0.0242 -0.4508
  412DOPC    HS56747  -0.023   0.476   2.109 -0.0236  1.6911 -0.8569
  412DOPC   O2156748   0.041   0.666   2.162  0.5612  0.0744 -0.2219
  412DOPC   C2156749  -0.082   0.713   2.125 -0.2852  0.6886  0.2498
  412DOPC   O2256750  -0.171   0.638   2.080  0.5738 -0.6400  0.2449
  412DOPC   C2256751  -0.089   0.864   2.137  0.0425  0.2290  0.0831
  412DOPC   H2R56752  -0.190   0.899   2.108  0.8495  0.9319 -2.0629
  412DOPC   H2S56753  -0.016   0.919   2.074  0.7903 -0.6807  0.1279
  412DOPC    C356754   0.052   0.466   2.315  0.1105 -0.5321  0.5764
  412DOPC    HX56755   0.126   0.536   2.358 -2.0445  3.2997 -1.4148
  412DOPC    HY56756   0.087   0.361   2.319  1.1871 -0.1530  1.6489
  412DOPC   O3156757  -0.071   0.496   2.379  0.2069 -0.1008 -0.0220
  412DOPC   C3156758  -0.165   0.401   2.366 -0.3450  0.4580  0.8579
  412DOPC   O3256759  -0.153   0.289   2.318 -0.3706  0.1349 -0.4373
  412DOPC   C3256760  -0.283   0.454   2.450  0.0126  0.3914  0.0453
  412DOPC   H2X56761  -0.248   0.520   2.532  1.3263 -2.2084  1.6960
  412DOPC   H2Y56762  -0.349   0.513   2.382  1.0020 -1.4903 -2.7344
  412DOPC   C2356763  -0.068   0.903   2.281 -0.4579  0.4655 -0.3007
  412DOPC   H3R56764  -0.057   1.012   2.301  1.1016  0.1658  0.5996
  412DOPC   H3S56765   0.030   0.864   2.315 -0.6835  1.3768  1.5201
  412DOPC   C2456766  -0.174   0.857   2.382  0.5686 -0.1740 -0.5424
  412DOPC   H4R56767  -0.151   0.750   2.404  0.5840 -0.2889 -1.1117
  412DOPC   H4S56768  -0.273   0.864   2.334  0.0929  0.5519  0.4983
  412DOPC   C2556769  -0.175   0.926   2.509  0.3514 -0.7120  0.1305
  412DOPC   H5R56770  -0.198   1.032   2.489 -0.9930 -0.9330  0.4082
  412DOPC   H5S56771  -0.072   0.909   2.548  0.4523  1.9414  1.2483
  412DOPC   C2656772  -0.273   0.874   2.610  0.5642  0.7363  0.2739
  412DOPC   H6R56773  -0.277   0.764   2.598 -0.4285  0.7624  0.2883
  412DOPC   H6S56774  -0.379   0.900   2.590  0.2681 -1.2492 -0.9653
  412DOPC   C2756775  -0.251   0.897   2.756 -0.6187 -0.5671 -0.4040
  412DOPC   H7R56776  -0.245   1.006   2.779 -0.6596 -0.3731 -1.2546
  412DOPC   H7S56777  -0.157   0.851   2.792  1.0360  1.2928 -2.0662
  412DOPC   C2856778  -0.370   0.837   2.842 -0.1949 -0.3225 -0.3786
  412DOPC   H8R56779  -0.371   0.726   2.829 -1.5876 -0.4119  0.3064
  412DOPC   H8S56780  -0.464   0.874   2.796 -1.4603 -1.8125  0.8676
  412DOPC   C2956781  -0.368   0.874   2.990  0.0167 -0.5417  0.3837
  412DOPC   H9R56782  -0.391   0.979   3.014  2.1078 -0.1305  0.7679
  412DOPC  C21056783  -0.350   0.786   3.093 -1.2251 -0.1395  0.3529
  412DOPC  H10R56784  -0.360   0.821   3.197 -2.3815  0.4674  0.0513
  412DOPC  C21156785  -0.311   0.642   3.078  0.0670 -0.4314  0.2927
  412DOPC  H11R56786  -0.246   0.625   2.989 -0.2350 -0.1000  0.0067
  412DOPC  H11S56787  -0.403   0.581   3.064  0.8029 -2.0190  1.8718
  412DOPC  C21256788  -0.247   0.584   3.200 -0.3192 -0.3753 -0.3603
  412DOPC  H12R56789  -0.247   0.474   3.186 -1.1508 -0.3694 -0.4351
  412DOPC  H12S56790  -0.314   0.593   3.288  1.2020  0.2638  0.7795
  412DOPC  C21356791  -0.105   0.631   3.219  0.2960 -0.1688  0.5125
  412DOPC  H13R56792  -0.105   0.742   3.216 -2.4692 -0.1178 -1.1373
  412DOPC  H13S56793  -0.053   0.603   3.124  0.8108 -1.3772  1.1285
  412DOPC  C21456794  -0.025   0.569   3.337  0.5029  0.0175  0.0141
  412DOPC  H14R56795  -0.008   0.459   3.338  1.2396  0.1159 -0.6350
  412DOPC  H14S56796  -0.068   0.595   3.436  1.1099  0.3546  0.1922
  412DOPC  C21556797   0.117   0.631   3.344  0.4699  0.2140 -0.0807
  412DOPC  H15R56798   0.108   0.740   3.363  0.8178  0.4126 -0.9635
  412DOPC  H15S56799   0.178   0.608   3.254  0.1325 -2.7954  0.3545
  412DOPC  C21656800   0.193   0.572   3.468 -0.2517 -0.1896 -0.4651
  412DOPC  H16R56801   0.203   0.462   3.468 -0.1223 -0.1846 -1.1204
  412DOPC  H16S56802   0.131   0.594   3.557  1.0360  2.8684 -0.2012
  412DOPC  C21756803   0.340   0.632   3.502  0.4826  0.4635  0.1601
  412DOPC  H17R56804   0.399   0.631   3.407 -0.9955 -3.0214 -0.8837
  412DOPC  H17S56805   0.381   0.566   3.581 -1.4555 -0.7237  0.2259
  412DOPC  C21856806   0.346   0.777   3.553 -0.1149 -0.0232 -0.7441
  412DOPC  H18R56807   0.446   0.817   3.580 -0.4680  0.9314 -0.7922
  412DOPC  H18S56808   0.280   0.790   3.641  0.6368 -0.0227 -0.1659
  412DOPC  H18T56809   0.300   0.842   3.475 -1.3094 -0.5896 -0.5322
  412DOPC   C3356810  -0.369   0.345   2.516  0.0266  0.5726 -0.2806
  412DOPC   H3X56811  -0.390   0.260   2.447  1.4877  0.7310 -0.9663
  412DOPC   H3Y56812  -0.468   0.385   2.546  0.1799 -0.6396  2.0675
  412DOPC   C3456813  -0.294   0.279   2.636 -0.3297 -0.1675 -0.0581
  412DOPC   H4X56814  -0.183   0.272   2.626 -0.3761 -0.7188 -0.1941
  412DOPC   H4Y56815  -0.322   0.172   2.644 -0.6335 -0.1392 -0.6848
  412DOPC   C3556816  -0.318   0.361   2.766  0.2673 -0.4499  0.0481
  412DOPC   H5X56817  -0.427   0.376   2.779  0.3713 -0.3666  0.8607
  412DOPC   H5Y56818  -0.277   0.463   2.750 -0.9066 -0.3322 -2.8927
  412DOPC   C3656819  -0.252   0.301   2.897 -0.4668  0.1745  0.5540
  412DOPC   H6X56820  -0.144   0.283   2.881 -0.3805 -0.6985  1.9737
  412DOPC   H6Y56821  -0.248   0.379   2.976 -0.5037  0.4836  0.2529
  412DOPC   C3756822  -0.316   0.175   2.939 -0.1857  0.5264 -0.3360
  412DOPC   H7X56823  -0.422   0.184   2.968 -0.7252 -1.5980 -1.4666
  412DOPC   H7Y56824  -0.316   0.105   2.853 -0.5258  1.3491 -1.0222
  412DOPC   C3856825  -0.245   0.099   3.054  0.3049  0.0946 -0.0169
  412DOPC   H8X56826  -0.205   0.172   3.127  0.2097 -0.1447  0.2807
  412DOPC   H8Y56827  -0.157   0.047   3.012  1.5510  1.4828  0.8157
  412DOPC   C3956828  -0.331  -0.003   3.130 -0.0149  0.6107 -0.8160
  412DOPC   H9X56829  -0.326  -0.111   3.113 -1.6886  0.3469  0.1623
  412DOPC  C31056830  -0.420   0.022   3.226  0.5834  0.5171  0.6378
  412DOPC  H10X56831  -0.482  -0.056   3.272 -0.6947  1.5167  0.6642
  412DOPC  C31156832  -0.467   0.158   3.270 -0.2905 -0.0653  0.0938
  412DOPC  H11X56833  -0.575   0.178   3.253 -0.0142  1.4588  0.0394
  412DOPC  H11Y56834  -0.421   0.245   3.219  1.3751 -1.1265 -0.2620
  412DOPC  C31256835  -0.433   0.158   3.420 -0.4314  0.2102  0.1860
  412DOPC  H12X56836  -0.495   0.086   3.479  0.9040 -1.8824 -0.8291
  412DOPC  H12Y56837  -0.461   0.258   3.460  2.6808 -0.4173  4.7401
  412DOPC  C31356838  -0.286   0.136   3.455 -0.2037  0.5878  0.5715
  412DOPC  H13X56839  -0.264   0.029   3.474 -1.7313 -0.1713 -1.5331
  412DOPC  H13Y56840  -0.230   0.158   3.361 -0.3540 -1.3458 -0.0087
  412DOPC  C31456841  -0.232   0.223   3.565 -0.6018  0.0763 -0.0196
  412DOPC  H14X56842  -0.121   0.209   3.567 -0.5691  0.1723 -0.7046
  412DOPC  H14Y56843  -0.254   0.328   3.535  0.9854  0.8311  1.2767
  412DOPC  C31556844  -0.288   0.212   3.707  0.3431  0.6746 -0.2963
  412DOPC  H15X56845  -0.323   0.108   3.725 -0.0044  0.6814 -0.9150
  412DOPC  H15Y56846  -0.380   0.273   3.722 -0.7796 -1.2320  1.0316
  412DOPC  C31656847  -0.179   0.245   3.812 -0.9214 -0.1583 -0.2301
  412DOPC  H16X56848  -0.075   0.220   3.781 -0.2448  2.4510 -0.3275
  412DOPC  H16Y56849  -0.187   0.354   3.832 -0.8819 -0.5301  2.1371
  412DOPC  C31756850  -0.196   0.186   3.960  0.0644  0.1269  0.2830
  412DOPC  H17X56851  -0.301   0.205   3.992  0.5573  1.8575  1.0055
  412DOPC  H17Y56852  -0.171   0.079   3.948  1.9655  0.3450  1.7590
  412DOPC  C31856853  -0.107   0.262   4.060 -0.3652 -0.2967 -0.7438
  412DOPC  H18X56854  -0.120   0.241   4.168  1.3992 -1.3712 -0.6904
  412DOPC  H18Y56855  -0.003   0.230   4.035 -0.2648 -0.7174  0.1732
  412DOPC  H18Z56856  -0.127   0.370   4.044 -0.1358  0.5142  3.3766
  413DOPC     N56857   1.310  12.284   1.872 -0.5143 -0.8502 -0.1249
  413DOPC   C1256858   1.284  12.391   1.972  0.0376 -0.5693 -0.3819
  413DOPC  H12A56859   1.249  12.482   1.924  1.0791  0.5749  0.9429
  413DOPC  H12B56860   1.380  12.411   2.018 -0.3569 -0.8915  0.6051
  413DOPC   C1356861   1.193  12.270   1.778  0.0664 -0.0160 -0.4107
  413DOPC  H13A56862   1.182  12.358   1.716 -2.3918  0.0307  0.0018
  413DOPC  H13B56863   1.208  12.189   1.708 -1.0249  1.0828 -1.9947
  413DOPC  H13C56864   1.099  12.251   1.827 -0.1513  1.9039  0.0031
  413DOPC   C1456865   1.335  12.150   1.939  0.0903  0.6989 -0.2028
  413DOPC  H14A56866   1.423  12.144   2.001 -0.8285 -1.7204  0.9754
  413DOPC  H14B56867   1.253  12.124   2.004 -0.1860  0.8566 -0.4847
  413DOPC  H14C56868   1.334  12.074   1.861 -2.4353 -0.2636  0.6599
  413DOPC   C1556869   1.431  12.315   1.783  0.2702 -0.4702 -0.2535
  413DOPC  H15A56870   1.453  12.246   1.703 -1.2219 -1.2211 -0.0611
  413DOPC  H15B56871   1.518  12.316   1.847 -0.8449  1.7920  1.3776
  413DOPC  H15C56872   1.420  12.412   1.736  0.0482 -0.1064  0.5216
  413DOPC   C1156873   1.192  12.360   2.091 -0.3147 -0.2197 -0.0103
  413DOPC  H11A56874   1.235  12.273   2.145  2.1574 -0.0046 -1.5007
  413DOPC  H11B56875   1.199  12.442   2.166 -2.2093 -0.8643  0.9551
  413DOPC     P56876   0.950  12.437   2.027 -0.2466 -0.2530  0.1579
  413DOPC   O1356877   0.815  12.376   2.032 -0.0868  0.2227 -0.8181
  413DOPC   O1456878   0.979  12.527   1.913 -0.3311 -0.5371  0.8482
  413DOPC   O1256879   1.057  12.329   2.046  0.5975  0.3158 -0.2044
  413DOPC   O1156880   0.963  12.516   2.165 -0.4575  0.0317 -0.4238
  413DOPC    C156881   0.958  12.439   2.291  1.3056 -0.0796 -0.6056
  413DOPC    HA56882   1.035  12.469   2.365  0.5222 -1.0765  0.6639
  413DOPC    HB56883   0.960  12.330   2.274  0.7112 -0.0765 -0.7364
  413DOPC    C256884   0.820  12.465   2.361  0.0515  0.3741 -0.1493
  413DOPC    HS56885   0.738  12.431   2.294 -1.7101 -1.1238  2.5724
  413DOPC   O2156886   0.810  12.605   2.390 -0.0507 -0.0004 -0.4475
  413DOPC   C2156887   0.685  12.649   2.388 -0.4229 -0.0540  0.1193
  413DOPC   O2256888   0.586  12.579   2.367 -0.5042 -0.0532  0.1598
  413DOPC   C2256889   0.684  12.795   2.431  0.2155  0.0905 -0.1615
  413DOPC   H2R56890   0.579  12.831   2.421 -0.4262 -1.6696 -0.0209
  413DOPC   H2S56891   0.747  12.860   2.366  0.2167  0.6408  0.3734
  413DOPC    C356892   0.832  12.387   2.499  0.4024 -0.1251 -0.5956
  413DOPC    HX56893   0.924  12.419   2.553 -0.4422  1.6817 -0.1670
  413DOPC    HY56894   0.853  12.278   2.492  1.2847 -0.2229  2.3501
  413DOPC   O3156895   0.712  12.403   2.581  0.1247  0.2353  0.1870
  413DOPC   C3156896   0.610  12.333   2.532 -0.7961  0.6716 -0.2509
  413DOPC   O3256897   0.627  12.250   2.447  0.4157  0.6719  0.1965
  413DOPC   C3256898   0.489  12.361   2.618  0.8760  0.3108  0.1191
  413DOPC   H2X56899   0.478  12.472   2.626  1.8512  0.3118  1.7463
  413DOPC   H2Y56900   0.403  12.330   2.555  0.9767  3.4289 -1.7936
  413DOPC   C2356901   0.730  12.810   2.575 -1.1950 -0.1991 -0.2942
  413DOPC   H3R56902   0.733  12.913   2.617  0.5087 -0.8919  1.4542
  413DOPC   H3S56903   0.836  12.779   2.586 -0.8216  0.9754 -0.4225
  413DOPC   C2456904   0.648  12.729   2.674 -0.2929  0.5192 -0.6013
  413DOPC   H4R56905   0.642  12.620   2.652 -0.2514  0.7271 -1.6776
  413DOPC   H4S56906   0.542  12.758   2.659 -0.1164  1.0555 -0.8393
  413DOPC   C2556907   0.693  12.743   2.823 -0.3677  0.0768 -0.2740
  413DOPC   H5R56908   0.689  12.851   2.848 -0.2212  0.6451 -2.5447
  413DOPC   H5S56909   0.798  12.705   2.821 -1.0993 -2.1815  1.0102
  413DOPC   C2656910   0.627  12.666   2.935 -0.7069  0.1560  0.6391
  413DOPC   H6R56911   0.645  12.561   2.903 -1.0594  0.8744 -2.2495
  413DOPC   H6S56912   0.518  12.688   2.932 -1.0974 -1.7249 -1.0465
  413DOPC   C2756913   0.700  12.690   3.072  0.1460 -0.4036 -0.4648
  413DOPC   H7R56914   0.696  12.800   3.088 -1.2118 -0.3663 -0.8809
  413DOPC   H7S56915   0.808  12.664   3.068  0.7191  1.5194  1.0026
  413DOPC   C2856916   0.627  12.617   3.181 -0.1724 -0.2931 -0.8786
  413DOPC   H8R56917   0.610  12.509   3.160 -1.8077 -0.4040  0.7389
  413DOPC   H8S56918   0.524  12.658   3.171 -0.7914 -1.7633 -0.8280
  413DOPC   C2956919   0.673  12.646   3.326  0.4862  0.6364 -0.1046
  413DOPC   H9R56920   0.750  12.725   3.338 -0.9037  1.6913  3.1066
  413DOPC  C21056921   0.620  12.583   3.434 -0.5568 -0.0805  0.3758
  413DOPC  H10R56922   0.684  12.602   3.521  0.8168  3.4799 -1.2194
  413DOPC  C21156923   0.528  12.461   3.426  0.2220  0.0264 -0.9306
  413DOPC  H11R56924   0.496  12.430   3.324 -0.7014 -2.0546 -0.0748
  413DOPC  H11S56925   0.433  12.485   3.479 -0.6689 -0.5664 -2.1976
  413DOPC  C21256926   0.583  12.341   3.510 -1.2544  0.3095 -1.1190
  413DOPC  H12R56927   0.691  12.316   3.503 -1.0853 -0.3928  2.3001
  413DOPC  H12S56928   0.521  12.249   3.501  1.1147 -1.6099  0.8504
  413DOPC  C21356929   0.576  12.375   3.665 -0.3454 -0.5658  0.0762
  413DOPC  H13R56930   0.468  12.393   3.684 -0.2999  0.2621 -0.3850
  413DOPC  H13S56931   0.627  12.470   3.693 -1.6502 -0.3015  1.6669
  413DOPC  C21456932   0.619  12.259   3.756  0.6729 -0.1056 -0.1349
  413DOPC  H14R56933   0.723  12.228   3.734  0.9683  1.7952 -1.6695
  413DOPC  H14S56934   0.550  12.173   3.741  1.2454 -0.3887 -1.2338
  413DOPC  C21556935   0.630  12.299   3.906  0.3018 -0.5292  0.1272
  413DOPC  H15R56936   0.690  12.393   3.914 -0.0278 -0.3805  1.0355
  413DOPC  H15S56937   0.683  12.218   3.960 -1.2161 -2.3042 -0.9443
  413DOPC  C21656938   0.488  12.315   3.967  0.1202  0.1714 -0.6744
  413DOPC  H16R56939   0.422  12.395   3.927 -2.5280 -0.6081  1.8110
  413DOPC  H16S56940   0.498  12.347   4.073 -1.5039  1.6787 -0.9276
  413DOPC  C21756941   0.404  12.189   3.993  0.0183  0.5615  0.4771
  413DOPC  H17R56942   0.469  12.121   4.053 -1.8854 -0.7760  1.1105
  413DOPC  H17S56943   0.381  12.133   3.900 -0.9838 -1.6735  1.9684
  413DOPC  C21856944   0.279  12.219   4.080 -0.9722 -0.0008 -0.4954
  413DOPC  H18R56945   0.199  12.143   4.067 -0.5467 -0.5698  0.2232
  413DOPC  H18S56946   0.241  12.317   4.044 -1.4201 -0.6795 -1.9862
  413DOPC  H18T56947   0.308  12.243   4.184  0.8691  1.0107 -1.1764
  413DOPC   C3356948   0.509  12.295   2.751  0.3664 -0.2109 -0.2703
  413DOPC   H3X56949   0.424  12.310   2.821 -0.2445  0.3016 -1.0909
  413DOPC   H3Y56950   0.597  12.335   2.805 -0.0376  0.4954 -0.1228
  413DOPC   C3456951   0.516  12.146   2.737  0.2560 -0.0744  0.1745
  413DOPC   H4X56952   0.602  12.106   2.680  0.1478 -1.2481  0.8047
  413DOPC   H4Y56953   0.433  12.121   2.666  1.0762  2.4452 -1.8178
  413DOPC   C3556954   0.514  12.070   2.876 -0.4465  0.4898 -0.0715
  413DOPC   H5X56955   0.494  11.962   2.865 -0.9764  0.6818 -1.1550
  413DOPC   H5Y56956   0.421  12.097   2.931 -0.5073 -1.0709  0.6408
  413DOPC   C3656957   0.641  12.102   2.961  0.0279 -0.4726  0.5029
  413DOPC   H6X56958   0.719  12.027   2.935  0.6161 -0.2698  1.6399
  413DOPC   H6Y56959   0.684  12.200   2.932 -0.9340  0.5789  2.4362
  413DOPC   C3756960   0.616  12.102   3.112  0.1772  0.6993  0.5825
  413DOPC   H7X56961   0.522  12.160   3.128  0.7786  1.7698  0.3884
  413DOPC   H7Y56962   0.579  12.002   3.141  0.8903  0.7512  1.7490
  413DOPC   C3856963   0.727  12.140   3.217  0.7718 -0.2739  0.7142
  413DOPC   H8X56964   0.682  12.138   3.319 -2.1904 -2.8685 -0.4741
  413DOPC   H8Y56965   0.751  12.246   3.195 -1.8919 -0.3185 -3.5815
  413DOPC   C3956966   0.848  12.048   3.217 -0.0376  0.3900  0.3646
  413DOPC   H9X56967   0.926  12.059   3.139  0.1684  1.4239  0.7046
  413DOPC  C31056968   0.874  11.968   3.323  0.0452 -0.1428  0.1109
  413DOPC  H10X56969   0.965  11.911   3.299 -0.2681 -0.3686 -0.5569
  413DOPC  C31156970   0.789  11.927   3.443  0.4501 -0.3884  0.4874
  413DOPC  H11X56971   0.776  11.817   3.450 -3.6340 -0.0966 -0.3181
  413DOPC  H11Y56972   0.684  11.962   3.433  0.4363 -1.0334 -2.5675
  413DOPC  C31256973   0.864  11.973   3.566 -0.2803 -0.2684 -0.0276
  413DOPC  H12X56974   0.847  12.081   3.586  2.5918  0.3179 -0.3814
  413DOPC  H12Y56975   0.973  11.954   3.558 -0.1162 -0.1118  1.4778
  413DOPC  C31356976   0.803  11.905   3.696  0.2358  0.6913 -0.2674
  413DOPC  H13X56977   0.698  11.941   3.699 -0.1271 -0.3725  0.1652
  413DOPC  H13Y56978   0.798  11.795   3.681  1.1815  0.1481  2.7688
  413DOPC  C31456979   0.885  11.940   3.823 -0.1101 -0.4086  0.1085
  413DOPC  H14X56980   0.986  11.899   3.802 -0.7990 -1.7210 -0.7827
  413DOPC  H14Y56981   0.898  12.050   3.830  1.5574 -0.6776  2.0328
  413DOPC  C31556982   0.805  11.874   3.942 -0.2227 -0.2509  0.7668
  413DOPC  H15X56983   0.834  11.768   3.953 -0.6563 -0.6207 -1.2486
  413DOPC  H15Y56984   0.695  11.878   3.925 -0.1561 -0.1738  0.3487
  413DOPC  C31656985   0.848  11.958   4.066  0.8302  0.2222  0.3986
  413DOPC  H16X56986   0.841  12.062   4.028 -1.4765 -0.3960 -1.1065
  413DOPC  H16Y56987   0.776  11.936   4.148  0.4657  2.0444  0.6164
  413DOPC  C31756988   0.981  11.914   4.121 -0.4863 -0.0995 -0.4559
  413DOPC  H17X56989   0.978  11.821   4.182  2.4850  0.0895  0.1323
  413DOPC  H17Y56990   1.041  11.891   4.031 -1.2372  1.4110 -1.3875
  413DOPC  C31856991   1.057  12.016   4.205 -0.0667 -0.0519 -0.3187
  413DOPC  H18X56992   1.015  12.016   4.307  0.0655  0.7798 -0.2587
  413DOPC  H18Y56993   1.168  12.004   4.210  0.1146  0.7925 -1.7300
  413DOPC  H18Z56994   1.052  12.121   4.170  2.6785  0.9064  1.8154
  414DOPC     N56995   4.108  11.358   1.764 -0.0489 -0.3124 -0.6095
  414DOPC   C1256996   4.091  11.369   1.916  0.2168  0.3651 -0.7101
  414DOPC  H12A56997   4.089  11.268   1.955 -2.6652  0.4756 -0.4125
  414DOPC  H12B56998   3.989  11.403   1.923 -0.8875 -1.9009 -3.4713
  414DOPC   C1356999   4.101  11.497   1.706 -0.0105 -0.4093  0.6406
  414DOPC  H13A57000   4.002  11.540   1.717 -0.3744 -0.6170 -1.4099
  414DOPC  H13B57001   4.187  11.556   1.734  0.7816 -1.6394  0.8282
  414DOPC  H13C57002   4.110  11.489   1.598 -1.1903  0.3203  0.4636
  414DOPC   C1457003   3.998  11.277   1.705 -0.0118 -0.6835  0.0567
  414DOPC  H14A57004   3.905  11.330   1.720 -0.5785 -1.5123 -0.4077
  414DOPC  H14B57005   4.008  11.269   1.598  0.0784 -0.6915  0.0657
  414DOPC  H14C57006   3.991  11.184   1.760 -0.6095 -0.9199 -0.4151
  414DOPC   C1557007   4.240  11.300   1.725 -0.5447 -0.2818  0.0065
  414DOPC  H15A57008   4.251  11.201   1.767  0.2700 -1.0474 -1.8713
  414DOPC  H15B57009   4.322  11.367   1.745 -2.0855  1.1926  1.7183
  414DOPC  H15C57010   4.240  11.280   1.618  0.7389 -2.3144  0.3295
  414DOPC   C1157011   4.185  11.452   2.002  1.0114  0.2060  0.4108
  414DOPC  H11A57012   4.193  11.556   1.962  1.0939  0.7378  1.7547
  414DOPC  H11B57013   4.148  11.461   2.106  2.0029  0.4016  0.7605
  414DOPC     P57014   4.351  11.255   2.064 -0.0115  0.2592  0.0469
  414DOPC   O1357015   4.481  11.220   2.005  0.1890 -0.7756 -0.0608
  414DOPC   O1457016   4.236  11.160   2.046  0.3109 -0.1474 -0.1205
  414DOPC   O1257017   4.311  11.395   2.012 -0.0824 -0.3451  0.5397
  414DOPC   O1157018   4.363  11.279   2.220 -0.0083  0.1083 -0.1998
  414DOPC    C157019   4.422  11.389   2.277  0.5458 -0.2914 -0.3891
  414DOPC    HA57020   4.340  11.462   2.295  0.6287 -0.4132  0.5713
  414DOPC    HB57021   4.505  11.438   2.222 -1.6272  2.3092 -1.5840
  414DOPC    C257022   4.454  11.357   2.422 -0.3027  0.2791  0.1262
  414DOPC    HS57023   4.375  11.290   2.462 -0.2467 -0.1244 -0.4233
  414DOPC   O2157024   4.461  11.476   2.508  0.0313 -0.1830  0.4396
  414DOPC   C2157025   4.564  11.558   2.505  0.6027 -0.8733  0.2051
  414DOPC   O2257026   4.644  11.576   2.416  0.4379  0.3917  0.0541
  414DOPC   C2257027   4.559  11.645   2.630  0.0907 -0.1886  0.6344
  414DOPC   H2R57028   4.456  11.685   2.634  1.2987  3.3934 -0.3611
  414DOPC   H2S57029   4.630  11.728   2.608 -0.4774  0.1245 -0.0305
  414DOPC    C357030   4.580  11.267   2.429  0.4339 -0.1526 -0.3720
  414DOPC    HX57031   4.656  11.303   2.357  1.8035 -1.6003  0.2979
  414DOPC    HY57032   4.561  11.164   2.394  1.2035 -0.5548  0.3594
  414DOPC   O3157033   4.630  11.262   2.564  0.0464 -0.3487 -0.7219
  414DOPC   C3157034   4.722  11.174   2.589 -0.3501  0.2997 -0.2511
  414DOPC   O3257035   4.756  11.083   2.513 -0.6616 -0.4251 -0.5491
  414DOPC   C3257036   4.779  11.199   2.725  1.0885  0.2388  0.2418
  414DOPC   H2X57037   4.839  11.293   2.722 -0.5885  1.3628  0.7365
  414DOPC   H2Y57038   4.692  11.222   2.790  1.3029 -0.0208  0.6229
  414DOPC   C2357039   4.623  11.586   2.753  0.1909 -0.6694 -0.0351
  414DOPC   H3R57040   4.698  11.659   2.791  0.3232 -0.9080  0.1616
  414DOPC   H3S57041   4.679  11.494   2.725  0.2159 -0.7188  0.1753
  414DOPC   C2457042   4.524  11.544   2.863 -0.0530  0.0128  0.1365
  414DOPC   H4R57043   4.577  11.479   2.936  0.8503 -0.2235 -0.7081
  414DOPC   H4S57044   4.444  11.482   2.817 -0.6001 -1.5340  2.9567
  414DOPC   C2557045   4.467  11.663   2.940  0.3911  0.0390 -0.1049
  414DOPC   H5R57046   4.428  11.728   2.859 -1.6361  1.5393  1.9561
  414DOPC   H5S57047   4.541  11.716   3.003 -0.8226 -1.9801  3.2364
  414DOPC   C2657048   4.349  11.627   3.028  0.4415  0.1385  0.1161
  414DOPC   H6R57049   4.383  11.560   3.110  2.7566  1.3633  0.2458
  414DOPC   H6S57050   4.267  11.595   2.960  1.7473  0.5412 -1.7129
  414DOPC   C2757051   4.295  11.755   3.092  0.3218  0.0716 -0.3048
  414DOPC   H7R57052   4.291  11.835   3.015  0.4349  1.4165  1.0481
  414DOPC   H7S57053   4.361  11.795   3.171 -0.4489  0.7039  0.0362
  414DOPC   C2857054   4.160  11.740   3.170  0.4794  0.3271  0.0828
  414DOPC   H8R57055   4.139  11.824   3.240 -2.3389 -0.6937  0.5960
  414DOPC   H8S57056   4.176  11.648   3.231 -1.3535  0.2963  0.5892
  414DOPC   C2957057   4.042  11.719   3.079  0.1679 -0.1600 -0.3014
  414DOPC   H9R57058   4.060  11.662   2.987  2.1539 -0.1327  0.0232
  414DOPC  C21057059   3.919  11.773   3.086  0.3041 -0.0040  0.4204
  414DOPC  H10R57060   3.847  11.744   3.008  0.3825  0.7627  0.0492
  414DOPC  C21157061   3.881  11.867   3.198 -0.1019 -0.3174  0.1181
  414DOPC  H11R57062   3.784  11.917   3.176 -0.4266  0.5830  3.1015
  414DOPC  H11S57063   3.951  11.954   3.204  0.6557 -0.7722 -1.5136
  414DOPC  C21257064   3.858  11.814   3.341 -0.1239  0.0702 -0.0347
  414DOPC  H12R57065   3.949  11.764   3.379 -0.7753 -1.0134  0.1305
  414DOPC  H12S57066   3.781  11.735   3.349 -1.1682  1.2269  2.9555
  414DOPC  C21357067   3.808  11.919   3.449 -0.3318 -0.5971  0.8317
  414DOPC  H13R57068   3.718  11.974   3.414 -1.2624 -1.8690  1.1745
  414DOPC  H13S57069   3.898  11.984   3.457  0.4837 -1.2942 -1.7778
  414DOPC  C21457070   3.790  11.854   3.593 -0.3148  0.2657 -0.0199
  414DOPC  H14R57071   3.881  11.796   3.620  0.2171  1.8129  1.7005
  414DOPC  H14S57072   3.703  11.786   3.599 -0.5702  0.7037  1.5310
  414DOPC  C21557073   3.760  11.957   3.699 -0.1035  0.2963  0.1421
  414DOPC  H15R57074   3.674  12.013   3.656 -1.2469 -1.6237 -0.2210
  414DOPC  H15S57075   3.840  12.033   3.711 -2.6156  2.7332  4.0612
  414DOPC  C21657076   3.717  11.902   3.834 -0.0346 -0.2848  0.4842
  414DOPC  H16R57077   3.625  11.843   3.815 -0.7434  0.0898  2.4684
  414DOPC  H16S57078   3.688  11.980   3.908 -3.3335  1.5844 -2.4678
  414DOPC  C21757079   3.823  11.816   3.903  0.1399  0.1908  0.9601
  414DOPC  H17R57080   3.911  11.874   3.938  0.1912 -0.3726  1.8006
  414DOPC  H17S57081   3.847  11.727   3.840 -2.5185  0.0345  0.0344
  414DOPC  C21857082   3.753  11.753   4.023  0.6226 -0.7119 -0.1531
  414DOPC  H18R57083   3.718  11.824   4.100 -1.7682 -2.2387  0.2764
  414DOPC  H18S57084   3.826  11.685   4.073  3.2968  3.5715  2.4192
  414DOPC  H18T57085   3.660  11.700   3.993  0.0249  0.3987 -0.2715
  414DOPC   C3357086   4.847  11.081   2.787 -0.5066  1.2026  0.1486
  414DOPC   H3X57087   4.787  10.989   2.770 -2.2527  2.1584  0.9187
  414DOPC   H3Y57088   4.865  11.088   2.896  0.4931 -0.3566  0.1115
  414DOPC   C3457089   4.988  11.053   2.721  0.1916  0.2674  0.0820
  414DOPC   H4X57090   5.065  11.131   2.737  0.7005 -0.7032  2.9365
  414DOPC   H4Y57091   4.970  11.029   2.614  0.8012  3.5232 -0.8491
  414DOPC   C3557092   5.059  10.921   2.770  0.5196  0.7755  0.3153
  414DOPC   H5X57093   5.147  10.898   2.706 -0.6064 -1.2691 -0.6087
  414DOPC   H5Y57094   4.988  10.838   2.747  0.1618  1.4038 -0.9263
  414DOPC   C3657095   5.072  10.909   2.922 -0.0886 -0.9090 -0.4828
  414DOPC   H6X57096   4.976  10.934   2.972 -1.0025 -3.6559 -0.6953
  414DOPC   H6Y57097   5.086  10.802   2.949  0.7644 -1.2536 -2.1467
  414DOPC   C3757098   5.185  10.998   2.981 -0.2821 -0.3165 -0.2716
  414DOPC   H7X57099   5.283  10.973   2.934 -0.2287 -0.0663 -0.2968
  414DOPC   H7Y57100   5.167  11.106   2.959  0.7342 -0.2787 -1.0173
  414DOPC   C3857101   5.190  10.974   3.137  0.4376  0.2059  0.3005
  414DOPC   H8X57102   5.201  10.863   3.144 -2.6333 -0.1206  1.7748
  414DOPC   H8Y57103   5.086  10.993   3.173  0.3775 -0.2264  0.3627
  414DOPC   C3957104   5.287  11.043   3.227 -1.0030  0.4074 -0.2942
  414DOPC   H9X57105   5.267  11.150   3.244  0.4544  0.3237  2.5669
  414DOPC  C31057106   5.400  10.996   3.286 -0.5664  0.0315 -0.1163
  414DOPC  H10X57107   5.466  11.074   3.328  0.0888 -1.2884  1.3994
  414DOPC  C31157108   5.449  10.855   3.264 -0.3808 -0.1703  0.0114
  414DOPC  H11X57109   5.560  10.859   3.267 -0.3945  0.1264  0.1262
  414DOPC  H11Y57110   5.432  10.821   3.160  0.4840 -1.2516  0.1976
  414DOPC  C31257111   5.379  10.765   3.365 -0.1717 -0.1030  0.2095
  414DOPC  H12X57112   5.414  10.660   3.351 -0.1205 -0.0367 -0.1626
  414DOPC  H12Y57113   5.270  10.758   3.346 -0.1828  0.4407  0.0835
  414DOPC  C31357114   5.418  10.812   3.505 -0.4842 -0.2485 -1.1128
  414DOPC  H13X57115   5.505  10.880   3.513 -0.4964 -0.3693  0.5591
  414DOPC  H13Y57116   5.331  10.862   3.553  1.1286  0.4288  1.2990
  414DOPC  C31457117   5.444  10.699   3.602 -0.5068 -0.5643  0.5663
  414DOPC  H14X57118   5.366  10.619   3.606  0.7293 -1.7864  0.8332
  414DOPC  H14Y57119   5.527  10.651   3.546  1.4026  3.5588 -0.4776
  414DOPC  C31557120   5.469  10.744   3.743 -0.1232  0.5612  0.3148
  414DOPC  H15X57121   5.380  10.804   3.773 -0.4485 -0.1503  0.8332
  414DOPC  H15Y57122   5.559  10.808   3.751  1.4270 -1.4462 -0.1925
  414DOPC  C31657123   5.486  10.627   3.829 -0.0627  0.2876  0.6377
  414DOPC  H16X57124   5.403  10.556   3.807  0.9536 -0.4222 -1.1328
  414DOPC  H16Y57125   5.571  10.564   3.795  0.2160 -0.3404  2.3884
  414DOPC  C31757126   5.509  10.669   3.977  0.0069 -0.1762  0.7682
  414DOPC  H17X57127   5.600  10.733   3.978 -1.4948  2.1027  0.4497
  414DOPC  H17Y57128   5.425  10.738   3.997  1.7599  1.6366  2.3704
  414DOPC  C31857129   5.523  10.559   4.075 -0.4403 -0.5092  0.2593
  414DOPC  H18X57130   5.441  10.487   4.055  0.3312 -0.9501 -1.5637
  414DOPC  H18Y57131   5.617  10.503   4.056  1.2852  2.2439  0.1078
  414DOPC  H18Z57132   5.525  10.591   4.181  0.9602 -1.5534  0.5694
  415DOPC     N57133   5.011   2.723   1.977  0.0894  0.5178 -0.4297
  415DOPC   C1257134   4.915   2.724   2.098 -0.8220 -0.3212 -0.5000
  415DOPC  H12A57135   4.855   2.814   2.105 -0.2648 -0.0241  0.8756
  415DOPC  H12B57136   4.971   2.721   2.190  1.1826 -1.5201 -1.7002
  415DOPC   C1357137   5.105   2.611   1.978 -0.2403  0.1209  0.2327
  415DOPC  H13A57138   5.056   2.515   1.972 -3.0893  1.3083  2.3608
  415DOPC  H13B57139   5.160   2.620   1.885  0.7232  1.8936  0.9378
  415DOPC  H13C57140   5.165   2.612   2.068 -1.2973 -0.5452  0.9592
  415DOPC   C1457141   5.092   2.851   1.990  0.2072 -0.7038 -0.2699
  415DOPC  H14A57142   5.029   2.934   1.963  0.0815 -0.9606 -0.7737
  415DOPC  H14B57143   5.130   2.876   2.088 -1.6568  1.4656 -0.0239
  415DOPC  H14C57144   5.172   2.853   1.918  0.1158 -2.0965 -0.4536
  415DOPC   C1557145   4.930   2.716   1.848  0.2831  0.0874 -0.3890
  415DOPC  H15A57146   4.988   2.723   1.757  1.7056 -1.3013  0.3541
  415DOPC  H15B57147   4.846   2.783   1.855 -2.1986 -2.9476  3.1125
  415DOPC  H15C57148   4.880   2.622   1.830 -1.4513  1.0994 -1.0537
  415DOPC   C1157149   4.822   2.603   2.122  0.0196  0.1962 -0.4633
  415DOPC  H11A57150   4.772   2.615   2.220 -0.2334 -2.2403 -0.2414
  415DOPC  H11B57151   4.733   2.616   2.056 -1.1016  4.9838  1.5312
  415DOPC     P57152   4.968   2.428   2.250  0.2236 -0.7388 -0.1111
  415DOPC   O1357153   5.070   2.331   2.224 -0.6878  0.2974 -0.4967
  415DOPC   O1457154   4.867   2.392   2.353  0.4107  0.1384  0.0909
  415DOPC   O1257155   4.894   2.475   2.113  0.0664  0.7111 -0.4962
  415DOPC   O1157156   5.039   2.567   2.305  0.1309  0.2507  0.1291
  415DOPC    C157157   5.154   2.545   2.385 -0.9368 -0.5551  0.3393
  415DOPC    HA57158   5.245   2.563   2.324 -1.0274  0.4189  0.4658
  415DOPC    HB57159   5.172   2.440   2.414  0.0741 -1.4052 -2.9246
  415DOPC    C257160   5.172   2.639   2.500 -0.2621 -0.8474  0.6271
  415DOPC    HS57161   5.251   2.605   2.570  1.3495  0.9630 -0.2086
  415DOPC   O2157162   5.050   2.658   2.569  0.2390  0.0011  0.3446
  415DOPC   C2157163   5.013   2.554   2.637  0.2209 -0.0185  0.1388
  415DOPC   O2257164   5.075   2.447   2.648 -0.4623 -0.1735  0.1384
  415DOPC   C2257165   4.892   2.583   2.726  0.5176  0.2524  0.2058
  415DOPC   H2R57166   4.828   2.494   2.734 -1.3132  1.5764  0.9778
  415DOPC   H2S57167   4.823   2.659   2.682 -0.5498 -1.1396 -0.5962
  415DOPC    C357168   5.234   2.778   2.474 -0.3442  0.3393 -0.0953
  415DOPC    HX57169   5.156   2.835   2.419  1.0646  1.4872 -0.9775
  415DOPC    HY57170   5.322   2.780   2.407  0.2529 -1.4346  0.5943
  415DOPC   O3157171   5.248   2.845   2.596 -0.1403  0.8313  0.8331
  415DOPC   C3157172   5.366   2.814   2.658  0.1016 -0.2583  0.6903
  415DOPC   O3257173   5.449   2.740   2.615  0.1013  0.5292 -0.1806
  415DOPC   C3257174   5.374   2.914   2.772  0.1019  0.2573 -0.0977
  415DOPC   H2X57175   5.411   3.006   2.720 -0.5394  1.6932  1.8617
  415DOPC   H2Y57176   5.272   2.924   2.815 -0.6271 -1.8710 -1.2186
  415DOPC   C2357177   4.949   2.623   2.864  0.4687  0.3778  0.1031
  415DOPC   H3R57178   5.046   2.575   2.891  0.7751  0.8795 -0.0896
  415DOPC   H3S57179   4.877   2.587   2.941 -0.3095 -1.0576 -1.2372
  415DOPC   C2457180   4.969   2.776   2.868 -1.2151 -0.1880  0.7656
  415DOPC   H4R57181   4.873   2.829   2.856 -1.2467 -0.4881 -0.3999
  415DOPC   H4S57182   5.038   2.794   2.783 -0.6670  2.1112  1.6275
  415DOPC   C2557183   5.051   2.836   2.989  0.4376  0.1613 -0.4383
  415DOPC   H5R57184   5.058   2.944   2.967 -2.7442  0.7585  0.9377
  415DOPC   H5S57185   5.157   2.806   3.002 -0.3971 -2.7521  0.3740
  415DOPC   C2657186   4.975   2.812   3.125  0.0902 -0.1427 -0.6794
  415DOPC   H6R57187   4.980   2.701   3.129  1.5963 -0.0505  1.3783
  415DOPC   H6S57188   4.874   2.852   3.100 -0.1306 -1.0149 -1.2063
  415DOPC   C2757189   5.044   2.887   3.232  0.5272 -0.3243 -0.8672
  415DOPC   H7R57190   5.048   2.997   3.224  0.7099 -0.1124  1.3949
  415DOPC   H7S57191   5.152   2.861   3.222  1.0236  1.5155 -0.5407
  415DOPC   C2857192   5.016   2.842   3.378  0.3263  0.3464  0.1350
  415DOPC   H8R57193   5.089   2.886   3.448  0.9470 -0.8756  0.2894
  415DOPC   H8S57194   5.052   2.737   3.371 -0.0960  0.2646 -1.0578
  415DOPC   C2957195   4.868   2.858   3.410 -0.0014 -0.2265  0.0354
  415DOPC   H9R57196   4.814   2.948   3.378 -1.8382 -0.9104  1.0432
  415DOPC  C21057197   4.788   2.765   3.465  0.0172 -0.3445  0.2252
  415DOPC  H10R57198   4.684   2.790   3.490 -0.4887 -0.5458 -1.5276
  415DOPC  C21157199   4.836   2.643   3.534  0.2967 -0.3464 -0.3654
  415DOPC  H11R57200   4.927   2.609   3.482  0.4510  0.0917 -0.3857
  415DOPC  H11S57201   4.758   2.564   3.520 -0.1616 -0.2955  1.6009
  415DOPC  C21257202   4.870   2.659   3.690 -0.8237 -0.1336  0.0524
  415DOPC  H12R57203   4.904   2.557   3.717  1.7650  0.4740 -0.5802
  415DOPC  H12S57204   4.784   2.704   3.744 -0.1704  0.7451  0.3677
  415DOPC  C21357205   4.995   2.745   3.717  0.3227  0.1656  0.7110
  415DOPC  H13R57206   4.988   2.842   3.664  1.2676 -0.0978  0.0664
  415DOPC  H13S57207   5.081   2.691   3.671  0.9834  0.4632  1.5747
  415DOPC  C21457208   5.026   2.752   3.864 -0.5733  1.0266 -0.0305
  415DOPC  H14R57209   5.055   2.654   3.906  0.9809 -0.2066 -3.5933
  415DOPC  H14S57210   4.932   2.791   3.910  0.1875  1.1846  1.4698
  415DOPC  C21557211   5.139   2.848   3.902 -0.3970  0.4244  0.4266
  415DOPC  H15R57212   5.132   2.937   3.836 -1.6574 -0.1861 -0.3088
  415DOPC  H15S57213   5.231   2.798   3.865 -0.3492  0.5589  0.3643
  415DOPC  C21657214   5.154   2.884   4.042 -0.4095 -0.1506 -0.8897
  415DOPC  H16R57215   5.061   2.928   4.084  0.1592 -0.0530  0.3312
  415DOPC  H16S57216   5.238   2.955   4.058  0.2699 -1.1594  0.1849
  415DOPC  C21757217   5.172   2.759   4.130  0.0265  0.1396 -0.0301
  415DOPC  H17R57218   5.250   2.772   4.209 -0.4430 -3.1633  1.1185
  415DOPC  H17S57219   5.211   2.674   4.070 -2.6933 -1.9525  0.9667
  415DOPC  C21857220   5.045   2.692   4.195  0.0838 -1.1541 -0.0525
  415DOPC  H18R57221   5.075   2.614   4.268  1.4036 -0.2275  0.4245
  415DOPC  H18S57222   4.984   2.639   4.119 -3.0284  0.5221  1.1295
  415DOPC  H18T57223   4.974   2.770   4.229 -0.4192 -2.1743  1.3143
  415DOPC   C3357224   5.463   2.892   2.897 -0.4337 -0.3435 -0.4540
  415DOPC   H3X57225   5.566   2.862   2.869 -0.4365  0.7765 -1.7975
  415DOPC   H3Y57226   5.430   2.806   2.959  0.2314  1.6966  2.9864
  415DOPC   C3457227   5.474   3.023   2.989  0.2867 -0.4891 -0.0666
  415DOPC   H4X57228   5.458   3.108   2.919 -1.2033 -1.2224 -0.6529
  415DOPC   H4Y57229   5.580   3.044   3.013 -0.2957  1.1334  1.3058
  415DOPC   C3557230   5.382   3.045   3.116  0.7773 -0.2953  0.1847
  415DOPC   H5X57231   5.276   3.024   3.089  1.0152 -0.4913 -0.6489
  415DOPC   H5Y57232   5.382   3.152   3.148 -2.0984 -0.2638  0.3407
  415DOPC   C3657233   5.415   2.949   3.237 -0.0721 -0.6429  0.0008
  415DOPC   H6X57234   5.368   2.987   3.330 -0.7238  0.4562 -0.7410
  415DOPC   H6Y57235   5.382   2.846   3.211 -1.3687 -0.4542  0.8283
  415DOPC   C3757236   5.568   2.953   3.261 -0.2718  0.1729 -0.3735
  415DOPC   H7X57237   5.629   2.892   3.190  2.4969 -1.5356  3.1782
  415DOPC   H7Y57238   5.601   3.059   3.263 -0.1018  0.1510 -1.2686
  415DOPC   C3857239   5.605   2.882   3.395  0.6947 -0.1346 -0.6040
  415DOPC   H8X57240   5.539   2.934   3.467 -0.6512 -0.4587 -1.5798
  415DOPC   H8Y57241   5.709   2.917   3.414  0.4355  1.7574 -2.4589
  415DOPC   C3957242   5.586   2.735   3.402 -0.0604 -0.2189 -0.5177
  415DOPC   H9X57243   5.615   2.684   3.309 -1.2058  2.2920 -2.3586
  415DOPC  C31057244   5.544   2.660   3.513  0.5452 -0.4374  0.4867
  415DOPC  H10X57245   5.528   2.552   3.502 -0.2770 -0.1269 -2.3703
  415DOPC  C31157246   5.523   2.704   3.654  1.0039 -0.7014  0.1306
  415DOPC  H11X57247   5.418   2.738   3.671  0.7329 -1.9738  1.1775
  415DOPC  H11Y57248   5.593   2.786   3.681  0.5689 -0.5702  0.8770
  415DOPC  C31257249   5.547   2.592   3.755 -0.3259  0.2935  0.5409
  415DOPC  H12X57250   5.565   2.633   3.857 -0.3155  0.3978  0.4965
  415DOPC  H12Y57251   5.639   2.538   3.723  1.7100  2.6643  2.0283
  415DOPC  C31357252   5.422   2.502   3.771  0.3887 -1.1019 -0.0312
  415DOPC  H13X57253   5.325   2.556   3.763  1.4606  0.8312 -0.9402
  415DOPC  H13Y57254   5.415   2.438   3.681 -1.3240  0.8391 -1.3752
  415DOPC  C31457255   5.427   2.429   3.901 -0.3059 -0.1804 -0.4214
  415DOPC  H14X57256   5.448   2.506   3.979 -2.3690  0.2292 -0.2249
  415DOPC  H14Y57257   5.326   2.393   3.927 -0.8671  1.1650 -0.6460
  415DOPC  C31557258   5.538   2.328   3.916  0.0798 -0.3669 -0.4117
  415DOPC  H15X57259   5.632   2.385   3.926  0.0298 -0.4118  0.3122
  415DOPC  H15Y57260   5.547   2.262   3.827  0.3821 -0.5499 -0.2455
  415DOPC  C31657261   5.514   2.231   4.031  0.2153  0.1679  0.0519
  415DOPC  H16X57262   5.511   2.291   4.125  0.3459 -0.0941  0.2254
  415DOPC  H16Y57263   5.420   2.176   4.011  1.0950 -2.3417  2.1890
  415DOPC  C31757264   5.634   2.130   4.041  0.1011  0.1285 -0.4872
  415DOPC  H17X57265   5.673   2.104   3.941  1.6542  4.0303 -1.0673
  415DOPC  H17Y57266   5.721   2.178   4.090 -0.2388 -0.6298  0.9258
  415DOPC  C31857267   5.600   2.015   4.132 -0.9127  0.5097 -0.9220
  415DOPC  H18X57268   5.576   2.055   4.233 -1.0525  2.7189 -1.7776
  415DOPC  H18Y57269   5.505   1.968   4.099 -1.8289 -0.1260  2.2772
  415DOPC  H18Z57270   5.674   1.933   4.142 -2.0173 -0.2899  1.4855
  416DOPC     N57271   5.080   6.107   2.203 -0.3199 -0.8528 -0.3670
  416DOPC   C1257272   5.042   6.221   2.293 -0.2445  0.0586 -0.2232
  416DOPC  H12A57273   5.072   6.207   2.396 -0.2285  3.3082  0.3020
  416DOPC  H12B57274   4.935   6.224   2.300 -0.3131 -1.3962 -0.3689
  416DOPC   C1357275   5.237   6.104   2.198  0.1732  0.0243 -0.4043
  416DOPC  H13A57276   5.270   6.058   2.105 -1.0580  0.7248 -1.2149
  416DOPC  H13B57277   5.275   6.204   2.179 -1.4002  0.9369  0.9975
  416DOPC  H13C57278   5.281   6.061   2.287  0.3683  1.0410  0.0041
  416DOPC   C1457279   5.036   6.109   2.056 -0.3772  0.0886  0.3021
  416DOPC  H14A57280   5.075   6.025   2.001  3.2827  1.3129  0.7397
  416DOPC  H14B57281   4.930   6.128   2.056 -0.0710  2.1063  1.6510
  416DOPC  H14C57282   5.082   6.191   2.002  1.0450 -1.3400 -0.7403
  416DOPC   C1557283   5.022   5.970   2.255  0.6485 -0.3852  0.4816
  416DOPC  H15A57284   5.065   5.941   2.350 -0.5304 -1.4564  0.7149
  416DOPC  H15B57285   5.046   5.892   2.185  2.7509 -0.0242  0.7496
  416DOPC  H15C57286   4.914   5.976   2.262  0.5536  0.7019 -1.3385
  416DOPC   C1157287   5.085   6.363   2.251  0.0151  0.3189 -0.1407
  416DOPC  H11A57288   5.027   6.370   2.156  0.0450 -1.2680 -0.2929
  416DOPC  H11B57289   5.050   6.446   2.316 -1.0789  0.9954 -1.5325
  416DOPC     P57290   5.258   6.480   2.100 -0.0637 -0.0243 -0.2185
  416DOPC   O1357291   5.163   6.479   1.988 -0.1307 -0.4275  0.2006
  416DOPC   O1457292   5.399   6.459   2.070  0.2327 -0.2219 -0.0717
  416DOPC   O1257293   5.224   6.385   2.221 -0.3042 -0.3158 -0.1035
  416DOPC   O1157294   5.236   6.614   2.176 -0.0503  0.4079  0.7168
  416DOPC    C157295   5.281   6.739   2.131 -0.1142  0.0292  0.5429
  416DOPC    HA57296   5.196   6.802   2.095 -1.2807 -1.7914 -0.0064
  416DOPC    HB57297   5.358   6.726   2.052 -0.1296 -0.5183  0.6125
  416DOPC    C257298   5.348   6.827   2.243 -0.2570  0.0179  0.5306
  416DOPC    HS57299   5.450   6.788   2.262  0.1691  0.2780 -1.1282
  416DOPC   O2157300   5.280   6.828   2.364 -0.3236  0.2213  0.0169
  416DOPC   C2157301   5.306   6.729   2.454 -0.6356 -0.5399  0.0134
  416DOPC   O2257302   5.393   6.643   2.448 -0.5793 -0.3189  0.0513
  416DOPC   C2257303   5.220   6.759   2.583  0.6079  0.5638  0.5957
  416DOPC   H2R57304   5.240   6.674   2.652 -1.1866 -1.7150 -1.4955
  416DOPC   H2S57305   5.116   6.742   2.547  1.9271 -2.3280 -2.5020
  416DOPC    C357306   5.352   6.974   2.197 -0.4426  0.2627 -0.3422
  416DOPC    HX57307   5.247   7.010   2.197 -0.4992  0.3484 -3.4636
  416DOPC    HY57308   5.387   6.966   2.092  0.5355 -2.1319  0.0954
  416DOPC   O3157309   5.440   7.062   2.277 -0.3328  0.5841  0.3608
  416DOPC   C3157310   5.568   7.069   2.255  0.3242 -0.1580 -0.0346
  416DOPC   O3257311   5.620   7.019   2.156  0.2236 -0.0616  0.0883
  416DOPC   C3257312   5.649   7.141   2.367 -0.2537 -0.1525  0.4570
  416DOPC   H2X57313   5.712   7.215   2.314 -0.1134 -0.5375  0.0787
  416DOPC   H2Y57314   5.573   7.184   2.435 -0.3814  0.4858 -0.0786
  416DOPC   C2357315   5.247   6.889   2.651  0.6987 -0.4220  0.2013
  416DOPC   H3R57316   5.194   6.974   2.604 -0.0139 -1.2082 -0.4652
  416DOPC   H3S57317   5.357   6.902   2.651  0.5172  1.5382 -2.0285
  416DOPC   C2457318   5.191   6.865   2.797 -0.0844  1.0847 -1.4757
  416DOPC   H4R57319   5.239   6.771   2.832  0.9218  0.9776 -3.0396
  416DOPC   H4S57320   5.081   6.855   2.807 -0.1396  3.0439  0.5957
  416DOPC   C2557321   5.251   6.969   2.896 -0.3863 -0.5484  0.7664
  416DOPC   H5R57322   5.223   7.072   2.865  0.0103 -0.6546  0.0396
  416DOPC   H5S57323   5.361   6.961   2.882 -0.3028 -0.6326  1.4104
  416DOPC   C2657324   5.221   6.942   3.044 -0.4124 -1.0314 -0.0547
  416DOPC   H6R57325   5.272   6.844   3.060  0.5182 -0.4617  0.5237
  416DOPC   H6S57326   5.116   6.920   3.071 -0.4225 -0.6884  0.1932
  416DOPC   C2757327   5.289   7.036   3.150  0.2175 -0.4326  0.2262
  416DOPC   H7R57328   5.247   7.139   3.146 -1.3594 -1.0448  0.1987
  416DOPC   H7S57329   5.395   7.035   3.119  0.0983 -1.6871 -0.1835
  416DOPC   C2857330   5.267   6.987   3.294 -0.3907  0.4195 -0.1042
  416DOPC   H8R57331   5.323   6.891   3.287 -0.5346  0.3671 -0.5602
  416DOPC   H8S57332   5.157   6.985   3.307 -0.4124  0.5643 -0.2624
  416DOPC   C2957333   5.339   7.074   3.394 -0.6288 -0.0427 -0.0066
  416DOPC   H9R57334   5.419   7.141   3.359  2.4430 -2.6340  1.4759
  416DOPC  C21057335   5.308   7.085   3.522 -0.5809  0.0740  0.1981
  416DOPC  H10R57336   5.366   7.152   3.586  0.8246 -2.0593  1.2900
  416DOPC  C21157337   5.198   7.013   3.586 -0.5540 -0.2189 -0.3456
  416DOPC  H11R57338   5.224   6.988   3.690 -0.9659  0.2873 -0.1153
  416DOPC  H11S57339   5.176   6.919   3.531 -0.9340 -1.5607  1.9743
  416DOPC  C21257340   5.064   7.087   3.593 -0.4372 -0.0657  0.5696
  416DOPC  H12R57341   4.988   7.007   3.604  0.3708 -1.0987 -0.9828
  416DOPC  H12S57342   5.049   7.134   3.493 -0.5608  2.2303  1.5995
  416DOPC  C21357343   5.046   7.196   3.703 -0.3453  0.8001 -0.0524
  416DOPC  H13R57344   4.959   7.264   3.692 -0.2576  1.0939  0.9625
  416DOPC  H13S57345   5.124   7.272   3.679 -0.3666  1.2211  1.1372
  416DOPC  C21457346   5.066   7.140   3.843  0.0762  0.1884  0.8223
  416DOPC  H14R57347   5.176   7.145   3.862 -0.0418  3.1889  1.1670
  416DOPC  H14S57348   5.017   7.041   3.855  0.0547  0.2364  1.1428
  416DOPC  C21557349   5.000   7.232   3.944 -0.0082  0.5286 -0.1055
  416DOPC  H15R57350   4.892   7.215   3.925 -0.3505  3.1862 -0.9021
  416DOPC  H15S57351   5.025   7.336   3.914  4.3073  0.0125  0.9920
  416DOPC  C21657352   5.051   7.188   4.081  0.2002  0.5653 -0.0608
  416DOPC  H16R57353   5.161   7.203   4.091  0.3481 -0.5982  0.3284
  416DOPC  H16S57354   5.036   7.078   4.083  0.8492  0.4452 -1.1930
  416DOPC  C21757355   4.979   7.250   4.201  0.3730 -0.4954  0.2823
  416DOPC  H17R57356   5.051   7.239   4.284  1.9066  1.2454 -0.7361
  416DOPC  H17S57357   4.895   7.183   4.229  0.5359 -0.0301  2.0199
  416DOPC  C21857358   4.936   7.400   4.186  0.5107  0.5261  0.0372
  416DOPC  H18R57359   5.036   7.447   4.172  0.4371  0.5975 -0.2413
  416DOPC  H18S57360   4.887   7.447   4.274  0.1810  3.2931 -1.5164
  416DOPC  H18T57361   4.866   7.417   4.102 -0.5965  0.7252  0.9678
  416DOPC   C3357362   5.736   7.042   2.445 -0.0796  0.0280 -0.1583
  416DOPC   H3X57363   5.802   7.100   2.514 -1.5614  1.1886  0.3177
  416DOPC   H3Y57364   5.813   6.987   2.386 -1.4979  0.6903 -2.7784
  416DOPC   C3457365   5.651   6.947   2.539 -0.5189  0.5403  0.0134
  416DOPC   H4X57366   5.588   6.888   2.469 -1.3800  1.1135  0.2913
  416DOPC   H4Y57367   5.590   7.013   2.604 -0.6644  0.5647 -0.1470
  416DOPC   C3557368   5.744   6.863   2.633  0.5176 -0.0475  0.7652
  416DOPC   H5X57369   5.814   6.938   2.674  1.7377 -0.7012 -0.0826
  416DOPC   H5Y57370   5.813   6.797   2.576  2.4173 -0.4822  3.4179
  416DOPC   C3657371   5.653   6.785   2.727 -0.7143  0.6153  1.0862
  416DOPC   H6X57372   5.569   6.845   2.768 -1.8270 -0.1161 -0.0498
  416DOPC   H6Y57373   5.608   6.697   2.675  1.6382  0.1780 -0.3240
  416DOPC   C3757374   5.740   6.731   2.837  0.1655 -0.2205 -0.0089
  416DOPC   H7X57375   5.838   6.687   2.810 -0.1566  0.3843 -2.3832
  416DOPC   H7Y57376   5.769   6.817   2.901 -2.1056  2.5398 -2.4158
  416DOPC   C3857377   5.678   6.629   2.942  0.1708  0.2781  1.1773
  416DOPC   H8X57378   5.758   6.590   3.009  1.5166 -1.0862 -1.0931
  416DOPC   H8Y57379   5.627   6.548   2.886  0.7508  0.3532  0.5173
  416DOPC   C3957380   5.574   6.697   3.034  0.0772  0.0659 -0.0736
  416DOPC   H9X57381   5.493   6.737   2.972 -1.0353 -2.0847 -0.1024
  416DOPC  C31057382   5.575   6.706   3.167 -0.1863 -0.2542  0.7332
  416DOPC  H10X57383   5.495   6.766   3.211 -0.7004 -0.4940  0.1395
  416DOPC  C31157384   5.669   6.641   3.267  0.5037  0.2984 -0.4879
  416DOPC  H11X57385   5.779   6.655   3.256  1.0118 -0.9666  2.2376
  416DOPC  H11Y57386   5.657   6.534   3.239  0.5565  0.5561 -1.5428
  416DOPC  C31257387   5.612   6.668   3.405  0.3406  0.0553 -0.0760
  416DOPC  H12X57388   5.653   6.595   3.479  0.6198  1.5550  1.3132
  416DOPC  H12Y57389   5.502   6.656   3.415  0.2138  0.9286 -0.3813
  416DOPC  C31357390   5.659   6.808   3.455 -0.4438  0.1025  1.1081
  416DOPC  H13X57391   5.769   6.813   3.438 -0.3625 -0.0161  1.5620
  416DOPC  H13Y57392   5.617   6.889   3.393  4.3583  1.9026 -0.2598
  416DOPC  C31457393   5.627   6.828   3.604 -0.0050  0.3094  0.0094
  416DOPC  H14X57394   5.518   6.810   3.610 -0.1749  1.0772 -0.5772
  416DOPC  H14Y57395   5.663   6.741   3.662  1.7517  1.0950  0.1685
  416DOPC  C31557396   5.662   6.962   3.667  0.1138  0.0271  0.0685
  416DOPC  H15X57397   5.629   7.035   3.590 -0.3715  2.1543  2.2112
  416DOPC  H15Y57398   5.769   6.977   3.692  0.2726  1.3071 -1.2408
  416DOPC  C31657399   5.572   6.982   3.789  0.0440  0.4920 -0.2817
  416DOPC  H16X57400   5.466   6.964   3.760  0.1116  0.4131 -0.4830
  416DOPC  H16Y57401   5.618   6.905   3.854  0.3844 -0.4012 -1.5426
  416DOPC  C31757402   5.575   7.116   3.842 -0.4120  0.0299 -0.2161
  416DOPC  H17X57403   5.550   7.189   3.762  0.3960  0.9204  0.3259
  416DOPC  H17Y57404   5.496   7.126   3.919 -1.9973 -1.9010 -1.4917
  416DOPC  C31857405   5.712   7.157   3.902 -0.2691 -0.1515  0.3801
  416DOPC  H18X57406   5.714   7.256   3.953 -2.3276 -0.4537  1.1457
  416DOPC  H18Y57407   5.740   7.074   3.971  1.0216 -0.0412  0.0131
  416DOPC  H18Z57408   5.793   7.154   3.827 -0.5270 -1.1279  0.1292
  417DOPC     N57409   7.100   3.908   2.303  0.1441 -0.0242  0.9781
  417DOPC   C1257410   6.950   3.938   2.277 -0.7342  0.6242  0.6214
  417DOPC  H12A57411   6.913   3.854   2.220 -0.8314  0.6243  0.6856
  417DOPC  H12B57412   6.946   4.027   2.215  2.5605  1.7877  1.8255
  417DOPC   C1357413   7.154   3.872   2.166 -0.2574  0.0720 -0.4154
  417DOPC  H13A57414   7.261   3.855   2.162 -0.1879  0.3702  0.0763
  417DOPC  H13B57415   7.104   3.786   2.123 -1.0005  0.5126 -0.4483
  417DOPC  H13C57416   7.135   3.959   2.104  1.4428 -0.0732 -1.1956
  417DOPC   C1457417   7.106   3.783   2.388  0.4934 -0.0998 -0.6137
  417DOPC  H14A57418   7.073   3.810   2.487 -0.0593  1.3448 -1.1645
  417DOPC  H14B57419   7.061   3.690   2.356  2.8097 -1.3335 -0.5451
  417DOPC  H14C57420   7.207   3.755   2.413  0.3549  1.1758  1.6343
  417DOPC   C1557421   7.165   4.025   2.370  0.4726  0.5779  0.6055
  417DOPC  H15A57422   7.104   4.071   2.446  0.5915 -0.1547  1.1499
  417DOPC  H15B57423   7.198   4.102   2.301  0.6112 -0.0017  0.0220
  417DOPC  H15C57424   7.255   3.984   2.412  0.7189  0.9332  0.4370
  417DOPC   C1157425   6.864   3.979   2.400 -0.8999  0.1829 -0.2178
  417DOPC  H11A57426   6.757   3.985   2.370 -0.5905 -0.1570 -1.4554
  417DOPC  H11B57427   6.886   3.905   2.479  0.5529 -0.3268 -1.0662
  417DOPC     P57428   6.898   4.241   2.406  0.2912  0.8521  0.1149
  417DOPC   O1357429   6.858   4.234   2.266  0.2065  0.3268  0.4963
  417DOPC   O1457430   7.024   4.308   2.438  0.3880 -0.5001 -1.0458
  417DOPC   O1257431   6.899   4.100   2.460  0.5615 -0.2485  0.1993
  417DOPC   O1157432   6.779   4.315   2.475  0.0241 -0.4132 -0.2874
  417DOPC    C157433   6.692   4.240   2.569  0.1548 -0.1438  0.1291
  417DOPC    HA57434   6.701   4.129   2.565 -0.6449 -0.2510  0.8673
  417DOPC    HB57435   6.587   4.273   2.552  0.5168  0.6559 -0.6098
  417DOPC    C257436   6.729   4.258   2.721  0.1137 -0.4432 -0.3834
  417DOPC    HS57437   6.824   4.207   2.748 -0.5727 -1.2268  0.5784
  417DOPC   O2157438   6.620   4.218   2.804 -0.0730 -0.0077 -0.5067
  417DOPC   C2157439   6.599   4.088   2.811 -0.0713  0.5098 -0.1096
  417DOPC   O2257440   6.664   3.999   2.762  0.1658  0.0701  0.0136
  417DOPC   C2257441   6.477   4.072   2.902  0.2642  0.0685  0.1548
  417DOPC   H2R57442   6.451   3.967   2.929  0.1625  0.2894  0.9267
  417DOPC   H2S57443   6.387   4.116   2.855  0.0582  0.8345  1.2251
  417DOPC    C357444   6.766   4.412   2.750  1.1976 -0.0165 -0.1725
  417DOPC    HX57445   6.677   4.466   2.714  2.1797  0.7732 -1.5280
  417DOPC    HY57446   6.856   4.434   2.689  1.4762 -0.8799 -0.0944
  417DOPC   O3157447   6.786   4.434   2.892  0.7103  0.0525  0.1606
  417DOPC   C3157448   6.902   4.483   2.928 -0.2400  0.2506  0.4224
  417DOPC   O3257449   6.998   4.486   2.858  0.1015 -0.5709  0.2119
  417DOPC   C3257450   6.895   4.536   3.072  1.3022  0.5917 -0.0541
  417DOPC   H2X57451   6.859   4.641   3.067  0.3539  0.2287 -2.0696
  417DOPC   H2Y57452   6.815   4.481   3.125 -0.9077 -0.2038 -3.8753
  417DOPC   C2357453   6.486   4.133   3.040  0.8932  0.4735  0.5763
  417DOPC   H3R57454   6.378   4.144   3.067  0.8610  0.6440  0.3891
  417DOPC   H3S57455   6.516   4.240   3.039 -0.5638  0.9249  1.3376
  417DOPC   C2457456   6.561   4.053   3.137  0.3184  0.1100 -1.2945
  417DOPC   H4R57457   6.665   4.053   3.097  0.0907  1.0001 -1.8955
  417DOPC   H4S57458   6.524   3.948   3.129 -0.4379  0.2862 -0.2686
  417DOPC   C2557459   6.552   4.113   3.280 -0.3368 -0.5947 -0.1396
  417DOPC   H5R57460   6.592   4.035   3.349  0.9436 -0.0709 -0.2678
  417DOPC   H5S57461   6.445   4.125   3.305 -0.0867 -0.9403  1.1802
  417DOPC   C2657462   6.634   4.243   3.300  0.4571  0.2076 -0.0789
  417DOPC   H6R57463   6.608   4.314   3.218 -0.0345 -0.4365 -0.4927
  417DOPC   H6S57464   6.738   4.215   3.274  0.4259  0.5508 -0.5936
  417DOPC   C2757465   6.631   4.307   3.444  0.3305  0.0695 -0.2037
  417DOPC   H7R57466   6.724   4.366   3.460  0.2443  0.0690  0.3206
  417DOPC   H7S57467   6.633   4.225   3.518  1.7047 -0.4593 -0.7932
  417DOPC   C2857468   6.508   4.398   3.465 -0.4650  0.0305 -0.5060
  417DOPC   H8R57469   6.417   4.341   3.494 -0.1833 -0.1186  0.1080
  417DOPC   H8S57470   6.485   4.449   3.369 -2.0370 -0.9060 -0.6556
  417DOPC   C2957471   6.519   4.497   3.580 -0.9673  0.2019 -0.6922
  417DOPC   H9R57472   6.486   4.459   3.678 -1.0270 -1.4429 -1.3155
  417DOPC  C21057473   6.543   4.629   3.564  0.0417 -0.0997  0.2624
  417DOPC  H10R57474   6.545   4.695   3.652  0.2559  2.9768 -1.8829
  417DOPC  C21157475   6.579   4.692   3.435  0.1522 -0.3847  0.0931
  417DOPC  H11R57476   6.512   4.656   3.354  0.6250 -0.3690 -0.3123
  417DOPC  H11S57477   6.679   4.658   3.401  2.1474  2.6410  2.3746
  417DOPC  C21257478   6.588   4.845   3.419  0.0099  0.9305  0.3341
  417DOPC  H12R57479   6.484   4.885   3.414  0.6062  2.4345 -3.3420
  417DOPC  H12S57480   6.647   4.878   3.332 -0.3340  0.3032 -0.1431
  417DOPC  C21357481   6.661   4.920   3.535  0.3900  0.3527  0.6692
  417DOPC  H13R57482   6.755   4.863   3.550 -1.1689 -2.8390 -0.6920
  417DOPC  H13S57483   6.601   4.905   3.627 -0.9394  0.1511 -0.2028
  417DOPC  C21457484   6.673   5.068   3.510 -0.4569 -0.0319 -0.4837
  417DOPC  H14R57485   6.578   5.112   3.474 -1.6507 -1.6545  0.5445
  417DOPC  H14S57486   6.751   5.080   3.432 -0.5305  0.1498 -0.5303
  417DOPC  C21557487   6.723   5.140   3.639  0.0322  0.8275  0.3610
  417DOPC  H15R57488   6.785   5.230   3.618 -1.3563  1.3728 -1.7480
  417DOPC  H15S57489   6.786   5.067   3.694  3.9637  2.3287 -1.7986
  417DOPC  C21657490   6.594   5.178   3.716  0.1881 -0.1097 -0.3137
  417DOPC  H16R57491   6.613   5.176   3.826  2.6443 -0.3326 -0.6992
  417DOPC  H16S57492   6.509   5.107   3.701 -0.8517  0.7425  1.2597
  417DOPC  C21757493   6.551   5.321   3.703 -0.0544 -0.7543  0.0916
  417DOPC  H17R57494   6.522   5.356   3.602  0.0247 -1.2904 -0.1206
  417DOPC  H17S57495   6.634   5.383   3.742  0.4569 -0.8047 -0.8842
  417DOPC  C21857496   6.431   5.368   3.793  0.1823 -0.0628 -0.4906
  417DOPC  H18R57497   6.393   5.468   3.766  1.4102  0.5417 -0.0412
  417DOPC  H18S57498   6.463   5.358   3.899  2.8184  2.4818 -0.9390
  417DOPC  H18T57499   6.348   5.294   3.783 -0.8113  1.1607 -1.5065
  417DOPC   C3357500   7.028   4.545   3.148 -0.2004  0.2327  0.1132
  417DOPC   H3X57501   7.091   4.615   3.088 -2.8427  1.7397 -1.0722
  417DOPC   H3Y57502   7.082   4.448   3.152  0.2492  0.5106  1.6759
  417DOPC   C3457503   7.016   4.595   3.293 -0.2278 -0.2320 -0.2111
  417DOPC   H4X57504   7.117   4.581   3.337 -0.3770 -1.1964 -0.1740
  417DOPC   H4Y57505   6.940   4.531   3.343 -2.5801  2.4130 -0.1328
  417DOPC   C3557506   6.971   4.742   3.327 -0.3645  0.4205 -0.2028
  417DOPC   H5X57507   6.972   4.746   3.438 -0.7118  0.4873 -0.2011
  417DOPC   H5Y57508   6.866   4.755   3.290 -1.5790 -0.4354  2.6863
  417DOPC   C3657509   7.060   4.852   3.263 -0.2646 -0.6102  0.0477
  417DOPC   H6X57510   7.166   4.823   3.279  0.3895  0.5683 -1.7798
  417DOPC   H6Y57511   7.045   4.854   3.153 -1.3269 -1.7031  0.1581
  417DOPC   C3757512   7.043   4.996   3.322 -0.3500  0.4526  0.4877
  417DOPC   H7X57513   7.117   5.057   3.265 -1.1024  0.9700  0.0429
  417DOPC   H7Y57514   6.943   5.034   3.291 -1.1427 -2.3116 -0.6325
  417DOPC   C3857515   7.070   5.015   3.472 -0.2204 -0.5142 -0.8777
  417DOPC   H8X57516   6.998   4.947   3.523 -1.3468  0.4272 -1.1410
  417DOPC   H8Y57517   7.033   5.115   3.505  0.9394 -0.4025  0.1367
  417DOPC   C3957518   7.216   4.979   3.508  0.0617  0.0619 -0.5489
  417DOPC   H9X57519   7.251   4.884   3.465 -0.4497 -1.1297  1.5468
  417DOPC  C31057520   7.312   5.057   3.560 -0.2324  0.4300 -0.7307
  417DOPC  H10X57521   7.413   5.016   3.576 -1.3475 -1.6768  1.7207
  417DOPC  C31157522   7.292   5.196   3.613 -0.1507 -0.7827 -0.1156
  417DOPC  H11X57523   7.215   5.183   3.692 -0.3070  0.3550 -0.0696
  417DOPC  H11Y57524   7.260   5.274   3.541 -1.4785 -1.6496 -0.5131
  417DOPC  C31257525   7.425   5.247   3.682 -0.3833 -0.6253  0.0121
  417DOPC  H12X57526   7.411   5.356   3.697  0.5456 -0.6404  1.1425
  417DOPC  H12Y57527   7.512   5.231   3.615 -0.2760  0.1297 -0.0388
  417DOPC  C31357528   7.452   5.188   3.822  0.1287 -0.0916 -0.6823
  417DOPC  H13X57529   7.357   5.142   3.857 -0.7345  0.8392 -1.7396
  417DOPC  H13Y57530   7.517   5.099   3.809 -0.3036 -0.2397 -1.9289
  417DOPC  C31457531   7.509   5.288   3.927  0.1306 -0.5183 -0.1448
  417DOPC  H14X57532   7.583   5.352   3.875  0.0050  0.2668  0.6335
  417DOPC  H14Y57533   7.429   5.358   3.959 -0.3806 -1.1322 -0.0440
  417DOPC  C31557534   7.560   5.218   4.051 -0.0948 -0.3835 -0.0900
  417DOPC  H15X57535   7.589   5.295   4.126  2.1931  0.1016 -1.3641
  417DOPC  H15Y57536   7.649   5.155   4.025  0.0934  0.4141 -1.4369
  417DOPC  C31657537   7.461   5.135   4.133  0.6684  0.0597 -0.4717
  417DOPC  H16X57538   7.376   5.190   4.179  1.4535  1.7052 -0.9013
  417DOPC  H16Y57539   7.410   5.066   4.062  1.9287 -2.5095  0.9575
  417DOPC  C31757540   7.529   5.048   4.240 -0.5983 -0.4768 -0.2133
  417DOPC  H17X57541   7.472   4.963   4.284 -3.2105  0.3118 -1.8468
  417DOPC  H17Y57542   7.615   5.001   4.188 -0.4755  0.4809 -0.9221
  417DOPC  C31857543   7.596   5.133   4.349  0.3677 -1.0693  0.0601
  417DOPC  H18X57544   7.652   5.086   4.432  0.4138  2.3861  2.1820
  417DOPC  H18Y57545   7.675   5.200   4.308  1.4951 -3.1285 -1.3081
  417DOPC  H18Z57546   7.523   5.210   4.380  1.0396  0.2239 -1.4253
  418DOPC     N57547   9.288   1.589   1.819 -0.1837  0.1548 -0.1579
  418DOPC   C1257548   9.424   1.525   1.869  0.3437 -0.0130  0.5457
  418DOPC  H12A57549   9.502   1.598   1.855 -1.1673  1.3712 -1.0816
  418DOPC  H12B57550   9.435   1.447   1.795 -4.4759 -0.0344 -0.4826
  418DOPC   C1357551   9.176   1.501   1.850  0.0334 -0.7101 -0.1385
  418DOPC  H13A57552   9.076   1.537   1.831 -0.0396 -0.8256  0.0253
  418DOPC  H13B57553   9.184   1.412   1.788  1.0112 -1.1309  0.5722
  418DOPC  H13C57554   9.185   1.468   1.952  0.4408  1.1959  0.4822
  418DOPC   C1457555   9.292   1.610   1.673  0.0109  1.2273 -0.5250
  418DOPC  H14A57556   9.372   1.678   1.647 -0.2961  1.7090 -0.2423
  418DOPC  H14B57557   9.297   1.516   1.621 -0.4091 -0.1175  1.7005
  418DOPC  H14C57558   9.200   1.649   1.631 -0.3627 -0.1934 -1.0698
  418DOPC   C1557559   9.262   1.720   1.887  0.5347 -0.1546  0.0956
  418DOPC  H15A57560   9.338   1.786   1.849  0.5922 -0.8975 -1.1194
  418DOPC  H15B57561   9.280   1.722   1.994  2.3008  1.9455 -0.1708
  418DOPC  H15C57562   9.163   1.761   1.876 -1.1858 -3.5116  1.4020
  418DOPC   C1157563   9.430   1.474   2.018  0.0643 -0.3459 -0.1886
  418DOPC  H11A57564   9.345   1.404   2.026 -2.1924  2.1624 -0.8374
  418DOPC  H11B57565   9.526   1.425   2.044  0.6871  1.8344  1.9564
  418DOPC     P57566   9.531   1.702   2.125  0.3534  0.6335  0.1895
  418DOPC   O1357567   9.476   1.825   2.068 -0.0646 -0.5172  0.4773
  418DOPC   O1457568   9.667   1.664   2.077  0.5746  0.1404 -0.0970
  418DOPC   O1257569   9.426   1.587   2.106  0.1417 -0.1550 -0.0798
  418DOPC   O1157570   9.535   1.721   2.281 -0.2218 -0.4460  0.3780
  418DOPC    C157571   9.588   1.616   2.365  0.1104 -0.7060 -0.4661
  418DOPC    HA57572   9.631   1.529   2.311 -0.4825  0.4148 -2.8540
  418DOPC    HB57573   9.515   1.576   2.438  0.0559  1.6492  0.8758
  418DOPC    C257574   9.710   1.662   2.453 -0.2277  0.4514 -0.4028
  418DOPC    HS57575   9.740   1.588   2.531 -0.1531  1.2931  0.3904
  418DOPC   O2157576   9.668   1.775   2.524  0.0762  0.0853 -0.2457
  418DOPC   C2157577   9.586   1.760   2.623 -0.0068  0.3167  0.5561
  418DOPC   O2257578   9.535   1.653   2.658 -0.1009 -1.4306 -0.4753
  418DOPC   C2257579   9.547   1.891   2.684  0.3276 -0.1354 -0.0860
  418DOPC   H2R57580   9.446   1.915   2.647 -1.0144 -4.8488 -0.1581
  418DOPC   H2S57581   9.623   1.965   2.651 -0.8281  0.2653 -2.0250
  418DOPC    C357582   9.838   1.690   2.370  0.1430  0.1062  0.1287
  418DOPC    HX57583   9.814   1.766   2.293  2.0156  2.1418  1.4351
  418DOPC    HY57584   9.863   1.596   2.315  2.2192  0.0092  1.1576
  418DOPC   O3157585   9.947   1.733   2.455 -0.2633  0.1389  0.0581
  418DOPC   C3157586   9.973   1.860   2.472 -0.4782  0.4202  0.7871
  418DOPC   O3257587   9.914   1.950   2.417  0.0400 -0.4497 -0.1345
  418DOPC   C3257588  10.086   1.873   2.571 -0.8600 -0.9007  0.0639
  418DOPC   H2X57589  10.178   1.823   2.532 -0.4286 -0.8103  0.9292
  418DOPC   H2Y57590  10.107   1.981   2.585 -1.2919 -0.6736 -0.9271
  418DOPC   C2357591   9.537   1.884   2.844 -0.5457 -0.2649 -0.3280
  418DOPC   H3R57592   9.470   1.798   2.868  0.4631 -1.9907 -3.2787
  418DOPC   H3S57593   9.491   1.979   2.879  0.6261  0.5808 -1.0307
  418DOPC   C2457594   9.674   1.861   2.905 -0.1811 -1.0559 -0.5310
  418DOPC   H4R57595   9.742   1.922   2.843 -0.3866 -1.6582 -1.3737
  418DOPC   H4S57596   9.706   1.755   2.892 -2.0305 -1.8091  0.5551
  418DOPC   C2557597   9.679   1.912   3.060 -0.1477  1.2103 -0.1688
  418DOPC   H5R57598   9.623   2.008   3.061  0.1195  1.4173 -2.2044
  418DOPC   H5S57599   9.784   1.938   3.085  0.0164 -0.9567  1.6740
  418DOPC   C2657600   9.611   1.820   3.156 -0.9020  0.2502 -0.7739
  418DOPC   H6R57601   9.666   1.724   3.145  0.1121  0.8375 -1.0202
  418DOPC   H6S57602   9.503   1.809   3.133 -1.6975 -1.1048  2.9726
  418DOPC   C2757603   9.620   1.885   3.301  0.2419 -0.0355 -0.4272
  418DOPC   H7R57604   9.556   1.976   3.303  2.6014  1.7013  1.3092
  418DOPC   H7S57605   9.725   1.918   3.320  0.0296  0.3127  0.1551
  418DOPC   C2857606   9.566   1.787   3.408 -0.2012  0.5596 -0.6211
  418DOPC   H8R57607   9.649   1.716   3.429 -0.4612  0.5421  0.4023
  418DOPC   H8S57608   9.482   1.719   3.381 -0.7056  0.7578  0.4093
  418DOPC   C2957609   9.520   1.847   3.544 -0.4205 -0.1836  0.1435
  418DOPC   H9R57610   9.412   1.865   3.541 -1.2068 -4.0543  0.5110
  418DOPC  C21057611   9.593   1.861   3.660  0.1151  0.1673  0.4953
  418DOPC  H10R57612   9.538   1.885   3.752 -0.4464 -0.7650  0.4168
  418DOPC  C21157613   9.735   1.819   3.677 -0.7903  0.2854 -0.2801
  418DOPC  H11R57614   9.789   1.879   3.753  0.8664 -3.7681  2.1370
  418DOPC  H11S57615   9.788   1.827   3.580 -2.1266 -0.6912 -1.1260
  418DOPC  C21257616   9.762   1.674   3.722 -0.6283  0.3796  0.2207
  418DOPC  H12R57617   9.867   1.676   3.756 -0.1320  0.2591 -1.2252
  418DOPC  H12S57618   9.750   1.599   3.641 -0.8967  1.5103 -0.8223
  418DOPC  C21357619   9.677   1.631   3.842  0.0962  1.0275 -0.6958
  418DOPC  H13R57620   9.571   1.612   3.812 -0.3240  0.8040  0.8570
  418DOPC  H13S57621   9.691   1.715   3.913  0.2037 -0.9361  1.7630
  418DOPC  C21457622   9.730   1.495   3.904  0.1273 -0.6106  0.3252
  418DOPC  H14R57623   9.839   1.495   3.881  0.5180  1.2365  1.9242
  418DOPC  H14S57624   9.681   1.410   3.852  0.0645 -0.8642  0.7908
  418DOPC  C21557625   9.724   1.481   4.054 -0.2181 -0.3231  0.4426
  418DOPC  H15R57626   9.765   1.574   4.100  0.3271  0.0435 -0.7580
  418DOPC  H15S57627   9.794   1.400   4.084  0.4574 -0.2048 -0.7689
  418DOPC  C21657628   9.585   1.457   4.108  0.5340  0.2381  0.1043
  418DOPC  H16R57629   9.521   1.543   4.080  3.6053  3.0293  0.9946
  418DOPC  H16S57630   9.595   1.458   4.219 -0.8465 -1.6843  0.2893
  418DOPC  C21757631   9.527   1.316   4.076  0.3913  0.0508 -0.4533
  418DOPC  H17R57632   9.605   1.250   4.033 -0.3605 -0.4570 -1.0791
  418DOPC  H17S57633   9.450   1.333   3.998 -1.1370 -0.3279  0.9072
  418DOPC  C21857634   9.451   1.244   4.186  0.0853 -0.9919 -0.4903
  418DOPC  H18R57635   9.502   1.241   4.285  1.1427  0.4081 -0.9633
  418DOPC  H18S57636   9.408   1.144   4.161 -1.7673 -0.7347  1.3903
  418DOPC  H18T57637   9.357   1.300   4.197  0.2923 -0.8887  0.9472
  418DOPC   C3357638  10.055   1.808   2.707 -0.4897  0.0699  0.3880
  418DOPC   H3X57639  10.058   1.698   2.699  0.7972  0.1444 -0.4570
  418DOPC   H3Y57640   9.949   1.827   2.736 -0.7364 -2.3722  1.2508
  418DOPC   C3457641  10.134   1.865   2.826  0.1764  0.7443 -1.3056
  418DOPC   H4X57642  10.118   1.975   2.824 -2.2339  0.4937  0.4188
  418DOPC   H4Y57643  10.242   1.842   2.839  0.2259  2.2109  1.7015
  418DOPC   C3557644  10.068   1.829   2.962 -0.9169  0.0150 -0.6015
  418DOPC   H5X57645  10.083   1.719   2.966 -0.7377  0.0490 -0.3782
  418DOPC   H5Y57646   9.961   1.858   2.965 -0.9608 -0.2165  0.7841
  418DOPC   C3657647  10.139   1.893   3.080  0.2968  0.4391 -0.6108
  418DOPC   H6X57648  10.247   1.871   3.092  0.4731  0.6988 -1.6392
  418DOPC   H6Y57649  10.146   1.998   3.044  1.1046 -0.0484 -1.9237
  418DOPC   C3757650  10.066   1.892   3.217 -0.3849  0.7790  0.4661
  418DOPC   H7X57651  10.138   1.944   3.284 -0.8686 -0.4293  1.9788
  418DOPC   H7Y57652   9.964   1.936   3.212 -1.3691 -1.4587 -1.9626
  418DOPC   C3857653  10.055   1.756   3.276 -0.6687  0.3040 -0.4663
  418DOPC   H8X57654  10.157   1.712   3.266 -0.5353  0.3876  0.4402
  418DOPC   H8Y57655  10.002   1.683   3.211 -0.3500 -2.1079  1.8000
  418DOPC   C3957656  10.014   1.754   3.420 -0.6209  0.1422 -0.0129
  418DOPC   H9X57657   9.921   1.811   3.431  0.1928  1.6378 -0.5225
  418DOPC  C31057658  10.076   1.700   3.531  0.1392  0.3144 -0.0128
  418DOPC  H10X57659  10.036   1.727   3.629  0.1762  0.5180 -0.0546
  418DOPC  C31157660  10.202   1.612   3.534  0.6203  0.2341 -0.3995
  418DOPC  H11X57661  10.298   1.664   3.555  2.0096 -1.9877 -0.8142
  418DOPC  H11Y57662  10.212   1.579   3.428 -0.4624  3.8805 -1.7611
  418DOPC  C31257663  10.200   1.493   3.629 -0.2711 -0.2206 -0.2513
  418DOPC  H12X57664  10.291   1.431   3.619  0.7284  0.5654  2.8548
  418DOPC  H12Y57665  10.113   1.425   3.615  0.5546 -1.4091  0.2472
  418DOPC  C31357666  10.204   1.533   3.775  0.2597 -0.3383  0.4530
  418DOPC  H13X57667  10.121   1.605   3.792 -1.5730 -1.8130 -1.5806
  418DOPC  H13Y57668  10.166   1.444   3.831  0.2063 -0.5459  0.0887
  418DOPC  C31457669  10.341   1.584   3.817 -0.4511 -0.1825 -0.1015
  418DOPC  H14X57670  10.425   1.526   3.773 -0.9219 -0.1825 -1.0168
  418DOPC  H14Y57671  10.349   1.681   3.764 -0.0449  1.6135  2.9977
  418DOPC  C31557672  10.359   1.609   3.964 -0.5345  0.2380 -0.8836
  418DOPC  H15X57673  10.344   1.515   4.021  1.6530  0.8811  0.9452
  418DOPC  H15Y57674  10.285   1.686   3.992  0.5320  1.0239 -0.1143
  418DOPC  C31657675  10.503   1.668   4.001  0.7645  0.1284  0.0073
  418DOPC  H16X57676  10.577   1.598   3.956  0.2394 -0.9075  0.7167
  418DOPC  H16Y57677  10.514   1.771   3.961  3.0813  0.4297  1.2321
  418DOPC  C31757678  10.541   1.648   4.159  0.6912 -0.0536  0.2536
  418DOPC  H17X57679  10.646   1.680   4.173  0.6674 -0.7124  2.1748
  418DOPC  H17Y57680  10.481   1.710   4.229  2.8462  1.6027  0.7272
  418DOPC  C31857681  10.538   1.506   4.209  0.5513 -0.0115 -0.3996
  418DOPC  H18X57682  10.616   1.446   4.157  2.4006  1.0032  1.0676
  418DOPC  H18Y57683  10.560   1.505   4.318 -1.2570  1.3459  0.0187
  418DOPC  H18Z57684  10.441   1.453   4.200 -0.7880  2.1136  0.6097
  419DOPC     N57685   6.395   0.416   2.075  0.0818 -0.2797  0.9756
  419DOPC   C1257686   6.339   0.387   2.211 -0.2114 -0.7047  0.4792
  419DOPC  H12A57687   6.233   0.369   2.210 -0.3187 -0.0681 -0.2792
  419DOPC  H12B57688   6.353   0.478   2.268  0.1106 -0.6218  0.2721
  419DOPC   C1357689   6.537   0.449   2.075 -0.5137  0.2599  0.4493
  419DOPC  H13A57690   6.578   0.450   1.975 -0.4732  1.5450  0.4666
  419DOPC  H13B57691   6.553   0.543   2.125 -0.0911  1.2479 -1.4768
  419DOPC  H13C57692   6.589   0.383   2.142  0.5523  1.1976  0.5653
  419DOPC   C1457693   6.323   0.538   2.024 -0.1492  0.4568  0.1847
  419DOPC  H14A57694   6.392   0.580   1.952  3.6655 -3.7985  0.8919
  419DOPC  H14B57695   6.224   0.517   1.987  0.4796 -2.0957 -0.2052
  419DOPC  H14C57696   6.311   0.609   2.105 -1.0427  0.3305  0.1650
  419DOPC   C1557697   6.374   0.306   1.971 -0.6307 -0.7805  0.3981
  419DOPC  H15A57698   6.425   0.215   1.998 -0.3752 -0.6644  0.3019
  419DOPC  H15B57699   6.405   0.340   1.874 -0.8276 -2.7458 -0.3896
  419DOPC  H15C57700   6.273   0.275   1.948 -1.9313  2.1647  1.5589
  419DOPC   C1157701   6.395   0.274   2.294 -0.2557 -0.2249 -0.7414
  419DOPC  H11A57702   6.323   0.272   2.379 -0.0281 -2.3974 -0.5465
  419DOPC  H11B57703   6.372   0.181   2.237  1.6050 -1.6611  0.7124
  419DOPC     P57704   6.577   0.404   2.421  0.0171 -0.6904  0.3390
  419DOPC   O1357705   6.555   0.538   2.354  0.3341  0.6892  0.1059
  419DOPC   O1457706   6.716   0.380   2.465 -0.3451  0.1715  0.1978
  419DOPC   O1257707   6.533   0.290   2.322 -0.1104  0.8317  0.2482
  419DOPC   O1157708   6.475   0.397   2.548  0.3588 -0.3839 -0.0587
  419DOPC    C157709   6.462   0.291   2.628 -0.1640 -0.0927 -0.5363
  419DOPC    HA57710   6.520   0.202   2.596 -0.5291 -1.3598  2.0124
  419DOPC    HB57711   6.357   0.254   2.623  0.2963 -1.3109 -1.8902
  419DOPC    C257712   6.493   0.318   2.776  0.4701 -0.3098  0.0724
  419DOPC    HS57713   6.460   0.231   2.836  1.0447  0.6206  1.7989
  419DOPC   O2157714   6.429   0.437   2.810 -0.2986  0.1709  0.4398
  419DOPC   C2157715   6.298   0.424   2.843  0.1991 -0.1834 -0.4618
  419DOPC   O2257716   6.232   0.320   2.842 -0.3959  0.3957 -0.3642
  419DOPC   C2257717   6.236   0.565   2.880  0.2567  0.6052  0.0403
  419DOPC   H2R57718   6.276   0.635   2.803 -2.7814  0.0416 -2.2298
  419DOPC   H2S57719   6.279   0.585   2.980 -0.9160 -3.7434  1.6409
  419DOPC    C357720   6.643   0.337   2.799 -0.3505  0.2493  0.1756
  419DOPC    HX57721   6.678   0.429   2.746  0.8498  0.2543  0.9547
  419DOPC    HY57722   6.703   0.253   2.761 -0.7188 -0.2892  0.7646
  419DOPC   O3157723   6.680   0.338   2.929 -0.0436  0.3047 -0.3418
  419DOPC   C3157724   6.797   0.386   2.961  0.0829 -0.1921  0.5460
  419DOPC   O3257725   6.877   0.431   2.881  0.1276 -0.3927  0.1579
  419DOPC   C3257726   6.810   0.382   3.115 -0.0888 -0.4207  0.2161
  419DOPC   H2X57727   6.716   0.367   3.172  0.4597  1.4207  1.7089
  419DOPC   H2Y57728   6.870   0.291   3.136  1.5043  0.4226 -0.4626
  419DOPC   C2357729   6.086   0.573   2.874  0.5113  0.3452 -0.6639
  419DOPC   H3R57730   6.045   0.505   2.952 -1.2886  2.8191  0.6837
  419DOPC   H3S57731   6.043   0.527   2.781 -0.1048  1.4810 -0.9579
  419DOPC   C2457732   6.027   0.710   2.903  0.6825  0.2793 -1.0148
  419DOPC   H4R57733   6.059   0.776   2.820  2.0148 -2.5072 -2.8415
  419DOPC   H4S57734   6.074   0.751   2.996  0.1622 -0.3366 -0.4675
  419DOPC   C2557735   5.878   0.718   2.916 -0.2890  0.1450  0.1177
  419DOPC   H5R57736   5.828   0.658   2.837  0.5919  1.3277 -1.3781
  419DOPC   H5S57737   5.840   0.822   2.903 -1.9704 -0.6113 -1.3606
  419DOPC   C2657738   5.834   0.678   3.060  0.1370  0.0210  0.4546
  419DOPC   H6R57739   5.862   0.753   3.137  0.0970 -0.5833  1.0679
  419DOPC   H6S57740   5.896   0.590   3.088 -0.9154 -1.1881 -0.8417
  419DOPC   C2757741   5.687   0.643   3.060 -0.2375 -0.2588 -0.0741
  419DOPC   H7R57742   5.675   0.553   2.996 -2.1998  0.3285 -0.5797
  419DOPC   H7S57743   5.626   0.726   3.018 -1.7954 -1.9140 -1.2129
  419DOPC   C2857744   5.636   0.600   3.199  0.0914 -0.2194  0.1692
  419DOPC   H8R57745   5.720   0.534   3.230  1.0499  0.9983  0.2028
  419DOPC   H8S57746   5.551   0.530   3.184 -0.1509  0.7087 -3.9791
  419DOPC   C2957747   5.626   0.720   3.289  0.4843  0.3199 -0.5527
  419DOPC   H9R57748   5.699   0.801   3.273  2.0973 -0.7322  1.0168
  419DOPC  C21057749   5.516   0.745   3.358 -1.2417  0.6026 -0.2936
  419DOPC  H10R57750   5.523   0.830   3.427  0.5171  0.0121  0.3020
  419DOPC  C21157751   5.395   0.658   3.374 -0.5608 -0.6131 -0.6113
  419DOPC  H11R57752   5.405   0.549   3.396 -0.0157 -0.3819  0.3684
  419DOPC  H11S57753   5.336   0.670   3.281 -0.6433  0.9624 -0.3866
  419DOPC  C21257754   5.303   0.695   3.490  0.1807 -0.1893  0.2089
  419DOPC  H12R57755   5.211   0.633   3.480 -0.5302  0.8328  0.2552
  419DOPC  H12S57756   5.272   0.797   3.460  0.3612  0.0671  0.8911
  419DOPC  C21357757   5.355   0.674   3.630  0.2144  0.3217 -0.7125
  419DOPC  H13R57758   5.435   0.746   3.658 -0.1662 -0.5992  3.3159
  419DOPC  H13S57759   5.407   0.576   3.638  0.2600  0.4343  0.5565
  419DOPC  C21457760   5.254   0.696   3.741 -0.0799 -0.3806 -0.1233
  419DOPC  H14R57761   5.241   0.805   3.755  1.9460 -0.0049 -0.8137
  419DOPC  H14S57762   5.303   0.661   3.834 -1.2653 -0.2266  0.5826
  419DOPC  C21557763   5.128   0.618   3.713 -1.2210 -0.1656 -0.3413
  419DOPC  H15R57764   5.067   0.651   3.626  1.1000  0.7043 -1.7149
  419DOPC  H15S57765   5.065   0.646   3.801  0.5060  2.5488  0.1787
  419DOPC  C21657766   5.132   0.463   3.703  0.0442 -0.3008 -0.4675
  419DOPC  H16R57767   5.177   0.430   3.800  2.1846  2.0382 -0.5436
  419DOPC  H16S57768   5.208   0.430   3.629  1.3178 -2.7597  1.7794
  419DOPC  C21757769   4.989   0.409   3.689 -0.0938 -0.0979  0.6309
  419DOPC  H17R57770   4.915   0.486   3.720  0.8913  1.9055 -1.6755
  419DOPC  H17S57771   4.969   0.325   3.759 -3.3402 -0.5681 -0.6805
  419DOPC  C21857772   4.956   0.345   3.552 -0.7797  0.1890 -0.0045
  419DOPC  H18R57773   4.871   0.274   3.563  0.5480 -1.3883  0.4627
  419DOPC  H18S57774   5.048   0.287   3.526 -0.4116  0.9236 -0.3671
  419DOPC  H18T57775   4.923   0.413   3.471 -0.5579 -1.1451 -1.2622
  419DOPC   C3357776   6.880   0.506   3.167  0.4454  0.4264  0.1159
  419DOPC   H3X57777   6.805   0.586   3.149 -2.4380 -2.2622 -0.5164
  419DOPC   H3Y57778   6.972   0.531   3.109 -0.4063  1.3406 -0.8686
  419DOPC   C3457779   6.917   0.496   3.317 -0.2121 -0.9731  0.0498
  419DOPC   H4X57780   6.827   0.479   3.381  0.1254 -0.2770  0.7308
  419DOPC   H4Y57781   6.948   0.598   3.350 -0.9461  0.7762 -4.0113
  419DOPC   C3557782   7.028   0.389   3.338 -0.2295  1.1417 -0.2339
  419DOPC   H5X57783   7.114   0.409   3.271  1.5528 -0.2034  1.5200
  419DOPC   H5Y57784   6.982   0.291   3.312  0.5454  1.2533 -2.1910
  419DOPC   C3657785   7.072   0.390   3.495  0.3645  0.3313  0.3937
  419DOPC   H6X57786   7.164   0.329   3.494 -0.1989 -0.5532 -0.5925
  419DOPC   H6Y57787   7.099   0.494   3.522 -1.4081  0.7869  0.5782
  419DOPC   C3757788   6.963   0.333   3.589 -0.5065  0.0954  0.1180
  419DOPC   H7X57789   6.873   0.399   3.590  0.7973  2.0160  2.5766
  419DOPC   H7Y57790   6.941   0.230   3.556  1.6915 -0.7700  1.2079
  419DOPC   C3857791   7.012   0.318   3.737  0.2145  0.1058  0.3301
  419DOPC   H8X57792   7.096   0.246   3.731  0.0950  0.0443 -0.6694
  419DOPC   H8Y57793   6.923   0.270   3.783 -0.0455  2.2811  2.3477
  419DOPC   C3957794   7.059   0.435   3.808  0.2800 -0.7233  0.0745
  419DOPC   H9X57795   7.121   0.501   3.745  0.5814 -1.3967 -0.3412
  419DOPC  C31057796   7.026   0.458   3.936 -0.2690 -0.4448  0.2654
  419DOPC  H10X57797   7.054   0.556   3.977  1.6989 -1.4551  1.4358
  419DOPC  C31157798   6.947   0.363   4.022 -0.2229  0.0725 -0.5471
  419DOPC  H11X57799   6.961   0.259   3.985  0.9437  0.3309 -0.8755
  419DOPC  H11Y57800   6.839   0.384   4.010 -0.0893  0.8667 -0.4159
  419DOPC  C31257801   6.986   0.369   4.174  0.4379 -0.2316 -0.2099
  419DOPC  H12X57802   6.923   0.290   4.220 -1.5630  1.9163  0.9486
  419DOPC  H12Y57803   6.963   0.466   4.224 -2.4705 -1.0282  0.1484
  419DOPC  C31357804   7.128   0.333   4.208  0.1362 -0.5573  0.4672
  419DOPC  H13X57805   7.168   0.266   4.129 -2.2651  0.6045 -1.8899
  419DOPC  H13Y57806   7.184   0.429   4.203 -1.5238  0.6059  2.7165
  419DOPC  C31457807   7.143   0.281   4.350 -0.2180  0.1297 -0.3609
  419DOPC  H14X57808   7.131   0.360   4.427  1.0867  0.1141 -0.1135
  419DOPC  H14Y57809   7.063   0.204   4.349 -0.8660  0.7885 -0.5106
  419DOPC  C31557810   7.283   0.216   4.353  0.0783 -0.0504 -0.3256
  419DOPC  H15X57811   7.350   0.295   4.313 -0.5162  0.3781 -0.4996
  419DOPC  H15Y57812   7.290   0.123   4.293  0.8810 -0.5982  0.5938
  419DOPC  C31657813   7.321   0.180   4.494  0.4998  0.0643  0.2953
  419DOPC  H16X57814   7.290   0.262   4.562  0.4852 -0.7843  1.3404
  419DOPC  H16Y57815   7.268   0.087   4.524  0.4092 -0.2284 -0.7264
  419DOPC  C31757816   7.472   0.159   4.514  0.2252  0.0160 -1.0755
  419DOPC  H17X57817   7.512   0.105   4.426  0.4876 -1.7463  0.0830
  419DOPC  H17Y57818   7.523   0.258   4.510 -0.2114  0.2151 -1.9246
  419DOPC  C31857819   7.505   0.093   4.651 -0.4814 -0.5975 -0.1952
  419DOPC  H18X57820   7.461  -0.008   4.658 -2.9185  0.4001  0.0036
  419DOPC  H18Y57821   7.612   0.109   4.673 -0.0880 -1.7170 -1.2138
  419DOPC  H18Z57822   7.460   0.152   4.734 -2.8999  0.6960 -2.2465
  420DOPC     N57823  11.301   0.268   1.967 -0.1122  0.0975  0.8126
  420DOPC   C1257824  11.150   0.249   1.948  0.3156 -0.1034  0.2036
  420DOPC  H12A57825  11.143   0.147   1.983  0.7543  0.1472  1.0366
  420DOPC  H12B57826  11.121   0.266   1.845 -0.6571  0.9121  0.6253
  420DOPC   C1357827  11.341   0.414   1.950 -0.1969  0.4107  0.0756
  420DOPC  H13A57828  11.297   0.476   2.026  1.0566  0.4477  0.8012
  420DOPC  H13B57829  11.449   0.422   1.955 -0.0133 -1.2759 -0.4349
  420DOPC  H13C57830  11.324   0.449   1.849  1.3961 -0.5046 -0.5523
  420DOPC   C1457831  11.382   0.190   1.867  0.3791 -0.1691  0.4192
  420DOPC  H14A57832  11.485   0.169   1.893  0.2544 -0.9317  0.3359
  420DOPC  H14B57833  11.341   0.090   1.856 -0.7761  0.2306  1.0316
  420DOPC  H14C57834  11.383   0.236   1.769  1.4383 -1.5903 -0.2812
  420DOPC   C1557835  11.345   0.219   2.102 -0.2125 -0.4270  1.0584
  420DOPC  H15A57836  11.348   0.111   2.102  0.7642 -0.4183  1.5744
  420DOPC  H15B57837  11.275   0.244   2.180 -0.1786 -2.6133  1.8608
  420DOPC  H15C57838  11.450   0.244   2.107 -0.2629  0.2776 -0.6973
  420DOPC   C1157839  11.062   0.341   2.044  0.3414 -0.2005 -0.0751
  420DOPC  H11A57840  10.965   0.291   2.059 -0.1032 -0.2992 -2.7575
  420DOPC  H11B57841  11.111   0.360   2.142 -2.3043 -1.1311  1.5117
  420DOPC     P57842  10.937   0.572   2.006  0.0517 -0.2088 -0.5007
  420DOPC   O1357843  10.805   0.501   1.993 -0.1912  0.1778  0.2138
  420DOPC   O1457844  10.956   0.693   1.929 -0.0327 -0.1603 -0.2430
  420DOPC   O1257845  11.045   0.466   1.971 -0.3021 -0.0922  0.3561
  420DOPC   O1157846  10.965   0.595   2.161 -0.3460 -0.5887 -0.0931
  420DOPC    C157847  11.093   0.631   2.220  0.5068  0.2587  0.5656
  420DOPC    HA57848  11.095   0.742   2.223 -0.5880  0.3008  0.0973
  420DOPC    HB57849  11.180   0.611   2.153  0.1708  0.1982  0.1497
  420DOPC    C257850  11.113   0.566   2.358 -0.0798 -0.1760 -0.0950
  420DOPC    HS57851  11.075   0.461   2.353 -0.3977 -0.0961  0.5986
  420DOPC   O2157852  11.042   0.647   2.456  0.1090 -0.1799  0.3296
  420DOPC   C2157853  10.915   0.621   2.466  0.0861  0.6246  0.5231
  420DOPC   O2257854  10.861   0.527   2.402 -0.1425 -0.1947 -0.4493
  420DOPC   C2257855  10.847   0.712   2.568  0.0265 -0.2278 -0.5099
  420DOPC   H2R57856  10.780   0.786   2.518  0.2966  0.8282  0.6351
  420DOPC   H2S57857  10.925   0.765   2.627 -1.1058 -0.3309  1.1364
  420DOPC    C357858  11.262   0.549   2.404 -0.3109  0.2786 -1.2067
  420DOPC    HX57859  11.293   0.650   2.439  0.9333  0.0768 -1.6750
  420DOPC    HY57860  11.328   0.519   2.319 -0.7290 -0.1726 -1.3751
  420DOPC   O3157861  11.271   0.448   2.514 -0.4883  0.1198 -0.2275
  420DOPC   C3157862  11.252   0.493   2.643  0.8248  0.0284 -0.8038
  420DOPC   O3257863  11.210   0.602   2.677 -0.2301  0.5075 -0.0826
  420DOPC   C3257864  11.286   0.375   2.729 -0.0837 -0.1999 -0.1038
  420DOPC   H2X57865  11.267   0.284   2.668  1.1820  0.2631 -1.2521
  420DOPC   H2Y57866  11.391   0.388   2.764 -0.3251  0.5687  0.3709
  420DOPC   C2357867  10.747   0.621   2.653 -0.2262 -0.4908  0.2540
  420DOPC   H3R57868  10.684   0.554   2.590 -1.5213  1.5579 -0.7595
  420DOPC   H3S57869  10.676   0.699   2.688  0.6228  0.9061 -0.9985
  420DOPC   C2457870  10.812   0.553   2.777  0.4743 -0.1093  0.5713
  420DOPC   H4R57871  10.871   0.464   2.746 -0.7453 -0.4798 -0.8341
  420DOPC   H4S57872  10.722   0.528   2.836 -0.0539 -1.6480 -0.7979
  420DOPC   C2557873  10.902   0.647   2.856 -0.0198  0.1353 -0.8686
  420DOPC   H5R57874  10.852   0.746   2.864 -1.3402 -0.3699 -2.2832
  420DOPC   H5S57875  11.001   0.656   2.806 -0.0547  0.1712 -0.9325
  420DOPC   C2657876  10.929   0.597   3.000 -0.0413  0.2719 -0.4725
  420DOPC   H6R57877  10.986   0.501   3.002  0.0166  0.3185  1.3206
  420DOPC   H6S57878  10.829   0.574   3.042  0.1972  0.2256  0.0869
  420DOPC   C2757879  11.004   0.698   3.093  0.0697  0.3032  0.8787
  420DOPC   H7R57880  10.987   0.668   3.199 -2.2447  0.2618  0.5592
  420DOPC   H7S57881  10.983   0.806   3.079  0.9385  0.4251  0.4595
  420DOPC   C2857882  11.155   0.689   3.076 -0.3971  0.4619  0.1545
  420DOPC   H8R57883  11.191   0.718   2.975  1.0069 -1.0226  0.1861
  420DOPC   H8S57884  11.189   0.586   3.098 -2.4393 -0.0862  0.9043
  420DOPC   C2957885  11.229   0.784   3.172 -0.4010 -0.1340  0.7738
  420DOPC   H9R57886  11.238   0.888   3.136  1.9871 -0.6543 -0.3483
  420DOPC  C21057887  11.271   0.759   3.295  1.0917  0.9005  0.4575
  420DOPC  H10R57888  11.318   0.840   3.352  0.5094  1.6329 -0.0925
  420DOPC  C21157889  11.256   0.634   3.376  0.0231  0.5563  0.2227
  420DOPC  H11R57890  11.360   0.594   3.370 -0.2528 -0.2940  0.9563
  420DOPC  H11S57891  11.211   0.551   3.318  2.5636 -1.9829  1.6255
  420DOPC  C21257892  11.200   0.647   3.519 -0.3982  0.3648 -0.4025
  420DOPC  H12R57893  11.181   0.543   3.554  2.1076  0.3248  1.1286
  420DOPC  H12S57894  11.108   0.709   3.521 -0.6744 -0.0155 -1.0339
  420DOPC  C21357895  11.299   0.714   3.616  0.7759 -0.6205 -0.0866
  420DOPC  H13R57896  11.300   0.822   3.592  0.3901 -0.1341  1.8642
  420DOPC  H13S57897  11.403   0.679   3.599  1.6082  1.2815  0.7606
  420DOPC  C21457898  11.264   0.717   3.769 -0.2189  0.0582 -0.8187
  420DOPC  H14R57899  11.344   0.768   3.826  0.5931 -3.3207  1.3001
  420DOPC  H14S57900  11.263   0.611   3.801  1.5769  0.6946  1.5912
  420DOPC  C21557901  11.121   0.777   3.797  0.6348 -0.1212  0.1916
  420DOPC  H15R57902  11.047   0.718   3.741 -0.6232  0.2131  1.4391
  420DOPC  H15S57903  11.109   0.878   3.752 -1.3580 -0.6766 -0.6170
  420DOPC  C21657904  11.091   0.767   3.947 -0.3952 -0.3030 -0.3018
  420DOPC  H16R57905  11.166   0.836   3.992  1.3578 -1.7282 -0.9459
  420DOPC  H16S57906  11.109   0.664   3.984 -3.1361 -1.0051 -0.7437
  420DOPC  C21757907  10.946   0.813   3.980 -0.8053  0.8992  0.5372
  420DOPC  H17R57908  10.869   0.741   3.946 -0.1821  1.9018 -3.5774
  420DOPC  H17S57909  10.929   0.905   3.920 -1.0265 -0.0966 -0.9825
  420DOPC  C21857910  10.928   0.830   4.128  0.1298 -0.5545 -0.4143
  420DOPC  H18R57911  10.927   0.729   4.175 -0.1691 -0.8214 -0.9793
  420DOPC  H18S57912  10.833   0.881   4.153 -0.1234 -1.6790  1.0282
  420DOPC  H18T57913  11.011   0.894   4.164 -0.3589  0.7560 -1.5418
  420DOPC   C3357914  11.198   0.373   2.853 -0.5973 -0.4454  0.2469
  420DOPC   H3X57915  11.089   0.354   2.837 -1.0484  0.1343  2.3321
  420DOPC   H3Y57916  11.193   0.473   2.900 -1.5331  0.1676 -1.0912
  420DOPC   C3457917  11.251   0.283   2.959 -0.9097 -0.0918  0.7770
  420DOPC   H4X57918  11.352   0.309   2.998 -1.4879 -0.5170  2.6943
  420DOPC   H4Y57919  11.257   0.176   2.930 -0.7590  0.4361 -1.2284
  420DOPC   C3557920  11.152   0.287   3.087 -0.2007  0.4555  0.4651
  420DOPC   H5X57921  11.072   0.213   3.066  0.4021  0.1107 -0.6866
  420DOPC   H5Y57922  11.115   0.389   3.111  2.8447  1.8129 -0.0948
  420DOPC   C3657923  11.203   0.241   3.225 -0.0983  0.1483  0.4178
  420DOPC   H6X57924  11.266   0.151   3.215 -1.2350 -0.8188  1.6072
  420DOPC   H6Y57925  11.263   0.326   3.264 -1.8000  1.4562  0.3610
  420DOPC   C3757926  11.083   0.212   3.326 -0.2382  0.8159  0.7293
  420DOPC   H7X57927  11.019   0.294   3.288  1.3796  1.4725 -0.7561
  420DOPC   H7Y57928  11.038   0.112   3.306  0.7419  0.0669  2.0793
  420DOPC   C3857929  11.118   0.232   3.475 -0.5370  0.4156 -0.3000
  420DOPC   H8X57930  11.019   0.254   3.519  0.5771  0.0203  2.6817
  420DOPC   H8Y57931  11.186   0.319   3.486  2.8581 -2.2386  1.9982
  420DOPC   C3957932  11.181   0.107   3.547 -0.6279  0.2710  0.0897
  420DOPC   H9X57933  11.116   0.018   3.541 -0.3068  0.0731 -0.5801
  420DOPC  C31057934  11.289   0.099   3.627  0.4657  0.1498 -0.3120
  420DOPC  H10X57935  11.299   0.006   3.684 -0.8753 -0.5190 -1.1113
  420DOPC  C31157936  11.379   0.212   3.666  0.2281 -0.4266 -0.5707
  420DOPC  H11X57937  11.393   0.295   3.593  2.3765 -1.4542 -1.4244
  420DOPC  H11Y57938  11.482   0.175   3.685  0.5648  0.9450  0.4191
  420DOPC  C31257939  11.334   0.268   3.807 -0.0740 -0.5254 -0.5072
  420DOPC  H12X57940  11.338   0.186   3.882  1.9327  1.0191  1.2223
  420DOPC  H12Y57941  11.231   0.305   3.788 -0.1788 -1.6459 -2.3796
  420DOPC  C31357942  11.436   0.372   3.858  0.2646 -0.0180 -0.6451
  420DOPC  H13X57943  11.541   0.340   3.843  0.2094 -0.1714 -0.7115
  420DOPC  H13Y57944  11.418   0.465   3.800 -1.8178  0.0200 -0.0374
  420DOPC  C31457945  11.406   0.407   4.003  1.0785  0.5654  0.3934
  420DOPC  H14X57946  11.295   0.412   4.007  1.0460  0.3628 -0.1819
  420DOPC  H14Y57947  11.440   0.324   4.069  0.7521  0.0013 -0.1283
  420DOPC  C31557948  11.462   0.535   4.050 -0.1939  0.3337  0.5479
  420DOPC  H15X57949  11.448   0.621   3.981  0.3804 -0.4175 -0.5359
  420DOPC  H15Y57950  11.571   0.520   4.063 -0.5134 -1.6317  1.3727
  420DOPC  C31657951  11.407   0.590   4.188 -0.3552  0.2954 -0.8015
  420DOPC  H16X57952  11.298   0.610   4.179  0.0563  3.5304  0.1009
  420DOPC  H16Y57953  11.410   0.514   4.268  0.8962 -0.0821 -1.1867
  420DOPC  C31757954  11.483   0.710   4.242 -0.1658 -0.1346 -0.2600
  420DOPC  H17X57955  11.580   0.680   4.286 -1.6257 -0.0827  3.3316
  420DOPC  H17Y57956  11.496   0.796   4.172 -1.2507  0.6332  0.4566
  420DOPC  C31857957  11.408   0.778   4.359 -0.1813  0.5058  0.5233
  420DOPC  H18X57958  11.481   0.844   4.411  0.8186 -0.6135  0.5877
  420DOPC  H18Y57959  11.322   0.838   4.323  0.5031  1.5406  0.5714
  420DOPC  H18Z57960  11.371   0.693   4.421  3.0001 -2.0082 -0.7129
  421DOPC     N57961   4.635  10.085   2.019  0.2076 -0.9805 -1.2169
  421DOPC   C1257962   4.773  10.136   1.983 -0.1326  0.3939 -0.4220
  421DOPC  H12A57963   4.768  10.217   1.912 -2.5739 -1.3018 -2.3783
  421DOPC  H12B57964   4.828  10.058   1.933 -1.0921 -0.7212  0.2076
  421DOPC   C1357965   4.564  10.203   2.075 -0.7831  0.1348  0.0352
  421DOPC  H13A57966   4.617  10.233   2.164 -0.3355 -1.2230  0.2510
  421DOPC  H13B57967   4.556  10.280   2.001 -4.2842 -0.1903 -0.0882
  421DOPC  H13C57968   4.467  10.176   2.114  0.1444 -2.2152  0.9327
  421DOPC   C1457969   4.637   9.971   2.120 -1.1803 -0.0765  0.3107
  421DOPC  H14A57970   4.675  10.000   2.217  0.7868 -1.1675 -0.0740
  421DOPC  H14B57971   4.537   9.934   2.139 -0.6673 -1.2574  0.8164
  421DOPC  H14C57972   4.707   9.897   2.084 -0.5474  0.4340  0.4698
  421DOPC   C1557973   4.578  10.029   1.891  0.5208 -0.5112 -0.3258
  421DOPC  H15A57974   4.583  10.096   1.806  2.6516 -0.2752 -0.0698
  421DOPC  H15B57975   4.472  10.016   1.908  1.0734 -2.3265  2.3544
  421DOPC  H15C57976   4.625   9.935   1.865  0.8086 -0.3927 -0.2394
  421DOPC   C1157977   4.864  10.189   2.100  0.2877  0.2446  0.1680
  421DOPC  H11A57978   4.807  10.273   2.146 -0.4280 -0.3261  0.3502
  421DOPC  H11B57979   4.888  10.110   2.174 -0.3354 -0.1481 -0.0372
  421DOPC     P57980   5.099  10.167   1.990 -0.1031 -0.1092 -0.2557
  421DOPC   O1357981   5.210  10.263   1.952 -0.2234 -0.7698  0.1775
  421DOPC   O1457982   5.051  10.078   1.879  0.5124 -0.2837  0.2381
  421DOPC   O1257983   4.978  10.254   2.046 -0.4207 -0.4760 -0.0791
  421DOPC   O1157984   5.132  10.078   2.119 -0.3229 -0.3948  0.5312
  421DOPC    C157985   5.173  10.132   2.242 -0.0292  0.1452 -0.0137
  421DOPC    HA57986   5.138  10.071   2.327  1.3274 -1.7247 -0.7143
  421DOPC    HB57987   5.141  10.239   2.249 -0.6906  0.0366 -1.1543
  421DOPC    C257988   5.333  10.123   2.253 -0.4900 -0.4157 -0.5601
  421DOPC    HS57989   5.372  10.182   2.167 -1.2515  1.2823  0.2031
  421DOPC   O2157990   5.378   9.988   2.236 -0.1674  0.1804 -0.1364
  421DOPC   C2157991   5.506   9.971   2.201  0.2744  0.5203  0.2246
  421DOPC   O2257992   5.577  10.060   2.160 -0.6770 -0.0077  0.0025
  421DOPC   C2257993   5.540   9.820   2.217  0.4475  0.2527 -0.2629
  421DOPC   H2R57994   5.487   9.762   2.139 -1.6999  1.5898  0.1132
  421DOPC   H2S57995   5.499   9.764   2.304  1.6588 -2.4435 -1.3085
  421DOPC    C357996   5.383  10.181   2.385  0.4419  0.2351 -0.8497
  421DOPC    HX57997   5.344  10.285   2.395  0.1874  0.0099  0.8290
  421DOPC    HY57998   5.494  10.174   2.385  0.5770  2.0107 -1.1256
  421DOPC   O3157999   5.330  10.114   2.504 -0.0009  0.0033  0.8584
  421DOPC   C3158000   5.278  10.171   2.605 -1.1242  0.1293 -0.1370
  421DOPC   O3258001   5.280  10.288   2.638 -0.3819 -0.1815 -0.0478
  421DOPC   C3258002   5.199  10.064   2.675  0.7764 -0.0504 -0.4311
  421DOPC   H2X58003   5.095  10.069   2.636  0.6170  0.5380  0.0567
  421DOPC   H2Y58004   5.237   9.961   2.656  0.6465  0.0159 -1.0682
  421DOPC   C2358005   5.690   9.789   2.219  0.7397  0.1628 -0.6342
  421DOPC   H3R58006   5.720   9.816   2.116 -1.0962 -0.0350 -1.2435
  421DOPC   H3S58007   5.700   9.678   2.226 -1.5322 -0.0749 -0.5707
  421DOPC   C2458008   5.761   9.863   2.333 -0.2796  0.5098  0.2439
  421DOPC   H4R58009   5.741   9.972   2.338  0.2637  0.6087  0.2438
  421DOPC   H4S58010   5.866   9.863   2.298 -0.2421 -2.8642 -0.0253
  421DOPC   C2558011   5.760   9.783   2.467 -0.4072 -0.2456 -0.1736
  421DOPC   H5R58012   5.862   9.783   2.512  0.1741 -2.3178 -1.3585
  421DOPC   H5S58013   5.749   9.674   2.454  0.2723 -0.4433  0.7874
  421DOPC   C2658014   5.662   9.838   2.560  0.0735 -0.2406 -0.4965
  421DOPC   H6R58015   5.564   9.840   2.507 -1.7578 -0.9596  2.6139
  421DOPC   H6S58016   5.665   9.948   2.577  1.8701 -0.0781 -1.5538
  421DOPC   C2758017   5.665   9.768   2.699 -1.0434  0.1575  0.3553
  421DOPC   H7R58018   5.729   9.820   2.772  1.4199 -1.0055 -0.8610
  421DOPC   H7S58019   5.697   9.663   2.683 -0.1806  0.3058  1.0471
  421DOPC   C2858020   5.531   9.767   2.776 -0.5314  0.5477  0.1814
  421DOPC   H8R58021   5.447   9.750   2.705 -0.5071  0.3550  0.2005
  421DOPC   H8S58022   5.514   9.870   2.814 -0.8406  0.7372 -0.4636
  421DOPC   C2958023   5.528   9.668   2.885  0.2247  0.4148 -0.7973
  421DOPC   H9R58024   5.501   9.570   2.843  0.0330 -0.1350  0.5434
  421DOPC  C21058025   5.531   9.669   3.023  0.2910  0.3219 -0.0270
  421DOPC  H10R58026   5.501   9.580   3.080 -1.6718  1.3888  0.6818
  421DOPC  C21158027   5.539   9.788   3.109 -0.5140  0.6572 -0.2332
  421DOPC  H11R58028   5.525   9.881   3.051 -0.7631  0.5750 -0.3071
  421DOPC  H11S58029   5.642   9.795   3.149 -0.1926 -2.2867 -0.2777
  421DOPC  C21258030   5.443   9.785   3.226  0.1483 -0.3650  0.4092
  421DOPC  H12R58031   5.494   9.721   3.301  0.6117 -0.6257 -0.1202
  421DOPC  H12S58032   5.345   9.741   3.199  1.4932 -2.1713 -1.9652
  421DOPC  C21358033   5.414   9.913   3.299  0.2786  0.0029  1.0018
  421DOPC  H13R58034   5.354   9.978   3.232 -0.7027 -0.8683  1.0214
  421DOPC  H13S58035   5.509   9.957   3.337  0.3557 -1.2442  2.3565
  421DOPC  C21458036   5.314   9.884   3.420 -0.2299 -0.3746 -0.1104
  421DOPC  H14R58037   5.344   9.961   3.494  0.9190  0.0557 -0.9895
  421DOPC  H14S58038   5.334   9.783   3.462 -1.2893 -0.4237  0.3193
  421DOPC  C21558039   5.168   9.904   3.379 -0.0114 -0.0656  0.1203
  421DOPC  H15R58040   5.149   9.843   3.288 -0.5352 -0.4856  0.5034
  421DOPC  H15S58041   5.166  10.013   3.354 -0.0850 -0.1294 -0.1520
  421DOPC  C21658042   5.067   9.872   3.490 -0.1038 -0.2086  0.1515
  421DOPC  H16R58043   4.970   9.925   3.476 -1.0165 -2.4428 -2.7733
  421DOPC  H16S58044   5.118   9.904   3.584  1.4472 -0.5203 -0.5640
  421DOPC  C21758045   5.028   9.729   3.505  0.2244 -0.3531  0.1123
  421DOPC  H17R58046   5.121   9.669   3.521  0.6074 -0.2231 -1.4700
  421DOPC  H17S58047   4.982   9.690   3.412 -0.2307 -0.6552  0.4605
  421DOPC  C21858048   4.942   9.699   3.626  0.0894 -0.1302 -0.1562
  421DOPC  H18R58049   5.010   9.685   3.712 -0.9868  1.4241  0.9988
  421DOPC  H18S58050   4.884   9.604   3.618 -0.9543  0.5496 -0.8477
  421DOPC  H18T58051   4.868   9.776   3.654 -2.5700 -1.7191 -2.3187
  421DOPC   C3358052   5.194  10.082   2.827  0.2644 -0.4417 -0.5811
  421DOPC   H3X58053   5.169  10.187   2.852 -0.7807 -1.1421  1.5142
  421DOPC   H3Y58054   5.299  10.057   2.854  0.2123 -1.6183 -1.3957
  421DOPC   C3458055   5.103   9.985   2.905 -0.2542  0.4852  0.1386
  421DOPC   H4X58056   5.000   9.995   2.866 -0.5152  0.9270  0.9324
  421DOPC   H4Y58057   5.096  10.016   3.012  0.8764 -1.7060  0.9063
  421DOPC   C3558058   5.152   9.840   2.907  0.0333  0.1296  0.0813
  421DOPC   H5X58059   5.253   9.836   2.952  0.0183  0.1882  0.1186
  421DOPC   H5Y58060   5.139   9.806   2.802 -2.4612  2.6474 -0.5337
  421DOPC   C3658061   5.064   9.750   2.997  0.4055 -0.1888  0.6502
  421DOPC   H6X58062   5.072   9.797   3.098 -0.3476 -1.3284  1.2552
  421DOPC   H6Y58063   4.956   9.747   2.974  0.8514  0.8024 -1.9398
  421DOPC   C3758064   5.122   9.613   3.012 -0.2317  0.0041  0.0966
  421DOPC   H7X58065   5.114   9.561   2.914 -0.1969  0.1117  0.0366
  421DOPC   H7Y58066   5.228   9.630   3.042 -0.0914  0.7218 -0.7490
  421DOPC   C3858067   5.061   9.535   3.126  0.2888 -0.4414  0.5611
  421DOPC   H8X58068   5.066   9.599   3.217 -0.5928 -0.8802  0.9366
  421DOPC   H8Y58069   5.130   9.456   3.163  1.0419  0.4649  1.1432
  421DOPC   C3958070   4.919   9.504   3.098  0.6292  0.5468  0.3544
  421DOPC   H9X58071   4.860   9.587   3.057  2.0757  1.2384 -0.4008
  421DOPC  C31058072   4.845   9.405   3.149 -0.3820  0.7381  0.5210
  421DOPC  H10X58073   4.739   9.394   3.124 -0.0938 -0.3891 -0.2898
  421DOPC  C31158074   4.902   9.299   3.241 -0.3681 -0.5405 -0.3454
  421DOPC  H11X58075   5.011   9.282   3.227  0.0581  0.6146  1.2710
  421DOPC  H11Y58076   4.846   9.203   3.240 -0.4555 -0.5102  0.5525
  421DOPC  C31258077   4.915   9.336   3.395 -0.1560 -1.1622 -0.6849
  421DOPC  H12X58078   4.811   9.370   3.415  0.7448  1.5715 -0.2582
  421DOPC  H12Y58079   4.983   9.422   3.408 -0.4607 -0.6691 -2.2101
  421DOPC  C31358080   4.965   9.222   3.475  0.8869  0.4440 -0.0039
  421DOPC  H13X58081   4.898   9.133   3.475  2.0871 -0.4912 -0.2877
  421DOPC  H13Y58082   5.063   9.191   3.433  1.0095  0.1163  0.5071
  421DOPC  C31458083   4.989   9.271   3.624  0.2124  0.6894 -0.1399
  421DOPC  H14X58084   5.039   9.370   3.628  3.8196 -1.0247  0.9193
  421DOPC  H14Y58085   4.889   9.285   3.671  0.6001  1.9263  0.3614
  421DOPC  C31558086   5.068   9.177   3.714 -0.4286  0.1586 -0.2811
  421DOPC  H15X58087   5.177   9.176   3.692 -0.0235 -1.8668  1.5237
  421DOPC  H15Y58088   5.035   9.073   3.698 -1.0061  0.2037  0.5685
  421DOPC  C31658089   5.047   9.200   3.863  0.9865 -0.7879 -0.6444
  421DOPC  H16X58090   5.083   9.302   3.889  1.2971 -1.2639  0.9227
  421DOPC  H16Y58091   4.941   9.192   3.895  1.2435  0.3684  0.5937
  421DOPC  C31758092   5.135   9.109   3.949  0.1786  0.4929 -0.1274
  421DOPC  H17X58093   5.077   9.076   4.037  1.5163  0.5821  0.8148
  421DOPC  H17Y58094   5.147   9.018   3.888 -1.3481  0.4867 -0.4691
  421DOPC  C31858095   5.270   9.167   3.984  0.2855  0.3646 -0.1551
  421DOPC  H18X58096   5.313   9.091   4.053 -2.4399 -0.9013  0.2529
  421DOPC  H18Y58097   5.336   9.202   3.901 -0.5681  0.4775 -0.7966
  421DOPC  H18Z58098   5.261   9.256   4.050 -0.1602  0.8455 -0.8493
  422DOPC     N58099   9.545  12.367   2.056  0.6112 -1.1721 -0.6452
  422DOPC   C1258100   9.429  12.454   1.995  0.7952 -0.0345  0.0370
  422DOPC  H12A58101   9.349  12.398   1.950  1.3376 -0.0202 -0.9764
  422DOPC  H12B58102   9.484  12.516   1.925 -0.6811  1.6359  0.2879
  422DOPC   C1358103   9.615  12.284   1.958 -0.4914 -0.4695  0.0834
  422DOPC  H13A58104   9.678  12.211   2.007  0.1357  0.2114  0.2988
  422DOPC  H13B58105   9.543  12.222   1.906  0.4761 -1.3471 -0.2775
  422DOPC  H13C58106   9.668  12.339   1.882  0.9612 -0.8376  0.7891
  422DOPC   C1458107   9.487  12.281   2.162  0.9149  0.2126 -0.6138
  422DOPC  H14A58108   9.436  12.342   2.236  0.1824  0.3448 -1.2074
  422DOPC  H14B58109   9.419  12.211   2.116 -0.5340  1.9993 -1.3654
  422DOPC  H14C58110   9.565  12.234   2.218  0.0449  0.7446  1.1148
  422DOPC   C1558111   9.648  12.459   2.133  0.1879  0.1613  1.2118
  422DOPC  H15A58112   9.719  12.401   2.191 -1.8056  0.8545  4.6122
  422DOPC  H15B58113   9.581  12.503   2.206 -1.5483  0.4960 -0.5050
  422DOPC  H15C58114   9.692  12.540   2.077  0.1049  1.0423  2.3861
  422DOPC   C1158115   9.361  12.555   2.093 -0.7006 -0.3718  0.0925
  422DOPC  H11A58116   9.434  12.629   2.131 -0.4969 -0.7970  0.5489
  422DOPC  H11B58117   9.284  12.616   2.040  1.4927  2.3851 -0.1198
  422DOPC     P58118   9.161  12.426   2.219 -0.1250 -0.1756  0.1062
  422DOPC   O1358119   9.173  12.297   2.290  0.2356 -0.6270  0.3599
  422DOPC   O1458120   9.090  12.426   2.087 -0.4392 -0.0623 -0.4806
  422DOPC   O1258121   9.306  12.491   2.205 -0.5108  0.2651 -0.2820
  422DOPC   O1158122   9.080  12.521   2.314 -0.0194 -0.7511 -0.5062
  422DOPC    C158123   9.148  12.574   2.429 -0.0367  0.5733 -0.0395
  422DOPC    HA58124   9.084  12.659   2.463  0.2372  1.1505 -0.9212
  422DOPC    HB58125   9.248  12.618   2.407 -0.6844  1.6200 -1.0169
  422DOPC    C258126   9.153  12.471   2.547 -0.1127 -0.1141 -0.7860
  422DOPC    HS58127   9.234  12.405   2.509  1.3822  1.3684 -0.3288
  422DOPC   O2158128   9.026  12.402   2.569  0.0685  0.3752  0.3540
  422DOPC   C2158129   9.033  12.273   2.603 -0.9301 -0.4358 -0.2017
  422DOPC   O2258130   9.133  12.206   2.619  0.6576  0.0437 -0.0258
  422DOPC   C2258131   8.889  12.220   2.621 -0.3722 -0.3014 -0.1894
  422DOPC   H2R58132   8.888  12.146   2.539  0.0827 -2.8190  1.9316
  422DOPC   H2S58133   8.814  12.302   2.615 -0.0105  0.1676  1.2387
  422DOPC    C358134   9.228  12.536   2.666  0.5079  0.0636 -0.2549
  422DOPC    HX58135   9.174  12.626   2.703 -0.2648 -0.0951 -0.9607
  422DOPC    HY58136   9.322  12.566   2.616  0.5661 -0.7858 -0.6722
  422DOPC   O3158137   9.245  12.445   2.775 -0.9946  0.1791  0.8229
  422DOPC   C3158138   9.345  12.359   2.753  0.1278  0.1269 -0.9290
  422DOPC   O3258139   9.423  12.367   2.660 -0.7258  0.2365  0.1975
  422DOPC   C3258140   9.345  12.266   2.877 -0.8115 -0.8864  0.1150
  422DOPC   H2X58141   9.374  12.332   2.961  1.3550  0.4825 -1.5928
  422DOPC   H2Y58142   9.236  12.246   2.885 -0.6659 -1.1758  1.5660
  422DOPC   C2358143   8.877  12.134   2.747  0.9216  0.7834 -1.0370
  422DOPC   H3R58144   8.937  12.042   2.735 -2.0111 -1.1603 -1.9837
  422DOPC   H3S58145   8.774  12.092   2.749  0.7224  1.2592 -1.1132
  422DOPC   C2458146   8.899  12.201   2.881 -0.1389  0.5481  0.1667
  422DOPC   H4R58147   8.830  12.287   2.893 -0.8858 -0.2032  1.5490
  422DOPC   H4S58148   9.003  12.241   2.888 -1.0732  3.0389  0.7948
  422DOPC   C2558149   8.889  12.094   2.991 -0.3525 -0.0257 -0.3186
  422DOPC   H5R58150   8.963  12.013   2.969 -0.0991  0.3876 -1.0286
  422DOPC   H5S58151   8.790  12.043   2.991 -0.2305 -0.3048 -1.6140
  422DOPC   C2658152   8.909  12.150   3.131  0.6692 -0.0985  0.2127
  422DOPC   H6R58153   8.868  12.077   3.203 -0.4900  0.2967 -0.0236
  422DOPC   H6S58154   8.845  12.240   3.142 -0.2843 -0.8414  0.8636
  422DOPC   C2758155   9.053  12.194   3.170  0.0027  0.1346 -0.4066
  422DOPC   H7R58156   9.077  12.276   3.099  0.0614 -0.6713 -1.3411
  422DOPC   H7S58157   9.125  12.112   3.150  1.8328  0.9908  2.1693
  422DOPC   C2858158   9.063  12.236   3.317  0.5577  0.0171  0.0252
  422DOPC   H8R58159   9.171  12.256   3.333  1.0878 -0.4594 -2.6176
  422DOPC   H8S58160   9.034  12.154   3.387 -1.4356  2.6856  2.6261
  422DOPC   C2958161   8.999  12.369   3.343  0.3109  0.3175  0.2825
  422DOPC   H9R58162   8.994  12.443   3.262 -1.2556  1.9925  1.8160
  422DOPC  C21058163   8.961  12.418   3.461  0.2960  0.6506 -0.3389
  422DOPC  H10R58164   8.922  12.521   3.464 -0.7679  0.3169 -1.4564
  422DOPC  C21158165   8.952  12.337   3.592 -0.2812 -0.0646  0.2396
  422DOPC  H11R58166   8.987  12.232   3.584 -0.1979 -0.0327  0.1842
  422DOPC  H11S58167   8.848  12.335   3.631 -0.2910 -0.3892  0.1991
  422DOPC  C21258168   9.035  12.406   3.703  0.1628  0.0957  0.2606
  422DOPC  H12R58169   8.988  12.502   3.733 -0.1361 -0.3604  1.2853
  422DOPC  H12S58170   9.141  12.410   3.671  0.5383 -2.1342  1.0657
  422DOPC  C21358171   9.021  12.322   3.833 -0.0960 -0.1941  0.0908
  422DOPC  H13R58172   9.109  12.255   3.821  1.6738  1.8986  0.8435
  422DOPC  H13S58173   8.928  12.261   3.833 -0.2418 -0.0296  1.7519
  422DOPC  C21458174   9.036  12.411   3.965 -0.1576 -0.4391  0.5559
  422DOPC  H14R58175   9.026  12.348   4.056 -0.9958 -1.1943 -0.0382
  422DOPC  H14S58176   8.947  12.477   3.958 -0.0159 -0.3096 -0.1046
  422DOPC  C21558177   9.168  12.484   3.955  0.3788 -0.3567  0.0539
  422DOPC  H15R58178   9.173  12.549   4.045 -3.5475  0.3645 -0.0765
  422DOPC  H15S58179   9.155  12.550   3.866 -0.2751 -0.1117  0.3240
  422DOPC  C21658180   9.297  12.399   3.956 -0.5148  1.1467 -0.0389
  422DOPC  H16R58181   9.383  12.467   3.937  0.9112 -0.8409 -1.0861
  422DOPC  H16S58182   9.307  12.323   3.876 -0.5118  0.4852  0.5784
  422DOPC  C21758183   9.329  12.335   4.096  0.0697  0.1725 -0.8955
  422DOPC  H17R58184   9.274  12.406   4.162  1.0995  1.0225 -0.9330
  422DOPC  H17S58185   9.435  12.342   4.128 -0.6081 -1.3283  2.0079
  422DOPC  C21858186   9.287  12.188   4.097 -0.0436 -0.8023 -0.9863
  422DOPC  H18R58187   9.195  12.173   4.036  0.3127 -1.7236 -1.3075
  422DOPC  H18S58188   9.253  12.169   4.201  0.1642 -1.7627 -1.0809
  422DOPC  H18T58189   9.358  12.111   4.060  1.0368 -0.4994  0.3491
  422DOPC   C3358190   9.446  12.150   2.879 -0.5714 -0.0281 -0.9497
  422DOPC   H3X58191   9.549  12.193   2.881 -0.6914  0.2291  0.8400
  422DOPC   H3Y58192   9.441  12.088   2.786  2.3830 -1.0869 -0.5123
  422DOPC   C3458193   9.416  12.066   3.008 -0.2667 -0.1738  0.3942
  422DOPC   H4X58194   9.338  11.990   2.988 -0.5174 -0.3382  1.9295
  422DOPC   H4Y58195   9.385  12.131   3.092 -0.4495 -1.1766  1.1212
  422DOPC   C3558196   9.542  12.004   3.054 -0.2107  0.0925 -0.3565
  422DOPC   H5X58197   9.615  12.081   3.087  0.5081 -1.0845  0.9310
  422DOPC   H5Y58198   9.581  11.952   2.964  0.5626  2.2743 -1.3502
  422DOPC   C3658199   9.507  11.900   3.170  0.2204  0.5711 -0.1212
  422DOPC   H6X58200   9.449  11.817   3.124  0.4094 -0.0845  0.8099
  422DOPC   H6Y58201   9.595  11.841   3.199  0.3911  0.2539 -1.2213
  422DOPC   C3758202   9.431  11.957   3.298 -0.3394  0.0332  0.1464
  422DOPC   H7X58203   9.472  12.060   3.303  0.0444 -0.0073 -1.5407
  422DOPC   H7Y58204   9.324  11.962   3.268 -0.1341  0.0488 -0.6105
  422DOPC   C3858205   9.454  11.876   3.428 -0.1365 -0.3979 -0.5078
  422DOPC   H8X58206   9.560  11.870   3.461 -0.3092  0.9026  0.3997
  422DOPC   H8Y58207   9.415  11.774   3.411  1.0588 -1.2640  1.5484
  422DOPC   C3958208   9.368  11.940   3.530  0.5124 -0.6712  0.1929
  422DOPC   H9X58209   9.274  11.958   3.477  1.8066  0.6558 -1.7862
  422DOPC  C31058210   9.399  11.999   3.647 -0.6776 -0.1658  0.0517
  422DOPC  H10X58211   9.320  12.039   3.712  1.0833  0.8921  1.6786
  422DOPC  C31158212   9.540  12.002   3.704  0.3663 -0.2609 -0.3378
  422DOPC  H11X58213   9.556  12.099   3.756 -0.5249 -0.2840  0.0048
  422DOPC  H11Y58214   9.616  11.981   3.625  2.8694  1.2525  1.5221
  422DOPC  C31258215   9.568  11.886   3.807  0.1211 -0.1815  1.3923
  422DOPC  H12X58216   9.553  11.792   3.750 -0.5952  0.3370  0.7007
  422DOPC  H12Y58217   9.494  11.871   3.889 -0.3500 -2.3154  0.6358
  422DOPC  C31358218   9.711  11.900   3.873  0.5551  0.9014  0.9779
  422DOPC  H13X58219   9.794  11.897   3.799 -0.3757  0.0779 -0.0633
  422DOPC  H13Y58220   9.723  12.004   3.910 -0.1951  0.8971  1.2420
  422DOPC  C31458221   9.728  11.803   3.985 -0.5810  0.1464 -0.3366
  422DOPC  H14X58222   9.827  11.824   4.030 -0.4264  0.7156 -0.9285
  422DOPC  H14Y58223   9.652  11.834   4.060 -0.5695  1.6045 -0.8800
  422DOPC  C31558224   9.727  11.655   3.960  0.1667  0.2270  0.2726
  422DOPC  H15X58225   9.636  11.638   3.899  0.2715  3.0129 -0.8061
  422DOPC  H15Y58226   9.708  11.591   4.048 -2.0925  1.9087  1.0793
  422DOPC  C31658227   9.831  11.591   3.867 -0.1874 -0.2130  0.4008
  422DOPC  H16X58228   9.904  11.674   3.858 -0.2944  0.0217  1.5104
  422DOPC  H16Y58229   9.888  11.512   3.921 -1.3801 -0.8256  0.8100
  422DOPC  C31758230   9.786  11.537   3.731  0.1566  0.4205  0.1390
  422DOPC  H17X58231   9.733  11.610   3.667  1.1287 -0.1189 -1.3603
  422DOPC  H17Y58232   9.884  11.528   3.679 -0.7093  0.3885 -1.5423
  422DOPC  C31858233   9.696  11.420   3.735  0.1928 -0.4456 -0.0376
  422DOPC  H18X58234   9.607  11.452   3.792 -1.1600 -0.8562 -1.8475
  422DOPC  H18Y58235   9.662  11.389   3.634 -0.5900 -0.4890  0.2334
  422DOPC  H18Z58236   9.740  11.340   3.798 -0.4009  0.3171  1.3924
  423DOPC     N58237   2.185   4.276   1.311 -0.2510  0.1453  0.6642
  423DOPC   C1258238   2.127   4.262   1.459 -0.2678  0.6300 -0.4147
  423DOPC  H12A58239   2.155   4.171   1.509  2.4143  2.6716  2.1637
  423DOPC  H12B58240   2.022   4.252   1.437 -0.4526  2.2466 -0.4047
  423DOPC   C1358241   2.146   4.161   1.230  0.1291 -0.8933  0.3432
  423DOPC  H13A58242   2.172   4.176   1.126  1.2747 -0.2954  0.6913
  423DOPC  H13B58243   2.196   4.071   1.264  0.6236 -0.1434  1.6809
  423DOPC  H13C58244   2.041   4.142   1.243 -0.2162 -0.1327 -1.1154
  423DOPC   C1458245   2.336   4.285   1.307  0.1853 -0.7017 -0.0148
  423DOPC  H14A58246   2.375   4.215   1.380  0.6628 -1.8236 -1.3013
  423DOPC  H14B58247   2.377   4.254   1.212 -0.2153 -0.8778 -0.1318
  423DOPC  H14C58248   2.358   4.387   1.337  2.0508 -1.4179  1.2627
  423DOPC   C1558249   2.127   4.403   1.256 -0.3935  0.2706  0.2144
  423DOPC  H15A58250   2.139   4.482   1.329  2.1836  0.6692 -0.5651
  423DOPC  H15B58251   2.022   4.399   1.230  0.0715  0.7805 -1.9611
  423DOPC  H15C58252   2.179   4.430   1.165  3.5357 -3.6713  0.9477
  423DOPC   C1158253   2.156   4.357   1.572  0.0049 -1.0098 -0.6025
  423DOPC  H11A58254   2.132   4.462   1.544 -0.3565 -1.4459 -1.9892
  423DOPC  H11B58255   2.085   4.338   1.655  0.3133  2.7275  0.7443
  423DOPC     P58256   2.350   4.228   1.703 -0.1873  0.2896  0.0270
  423DOPC   O1358257   2.494   4.254   1.726 -0.0953 -0.0108  0.4413
  423DOPC   O1458258   2.308   4.103   1.632  0.0902  0.1333  0.1880
  423DOPC   O1258259   2.293   4.349   1.619  0.4176  0.1696  0.0292
  423DOPC   O1158260   2.263   4.239   1.836  0.5875 -0.5266 -0.1343
  423DOPC    C158261   2.236   4.368   1.899 -0.4031  0.0623  0.0610
  423DOPC    HA58262   2.137   4.411   1.873 -0.4577  0.0503  0.2464
  423DOPC    HB58263   2.310   4.443   1.864  0.1156 -0.2300  0.5057
  423DOPC    C258264   2.234   4.346   2.051  0.4087 -0.2334 -0.2308
  423DOPC    HS58265   2.142   4.401   2.078 -0.8042 -1.3382 -1.9289
  423DOPC   O2158266   2.361   4.398   2.118  0.2510  0.1880  0.0346
  423DOPC   C2158267   2.377   4.524   2.127 -0.9373 -0.9040 -0.3131
  423DOPC   O2258268   2.295   4.605   2.087  0.3950  0.2884 -0.0913
  423DOPC   C2258269   2.522   4.553   2.184 -0.3690  0.1337  0.5663
  423DOPC   H2R58270   2.574   4.603   2.099  0.4836 -2.5622 -0.5918
  423DOPC   H2S58271   2.566   4.454   2.207  1.7001  0.7427 -0.5067
  423DOPC    C358272   2.203   4.196   2.094 -0.1054 -0.3257 -0.1630
  423DOPC    HX58273   2.286   4.126   2.069 -0.6936 -0.7977 -0.8469
  423DOPC    HY58274   2.121   4.167   2.025  0.2468 -2.2908  0.1864
  423DOPC   O3158275   2.176   4.185   2.234  0.2177  0.0146  0.8035
  423DOPC   C3158276   2.281   4.176   2.327  0.3852 -0.2043 -0.9547
  423DOPC   O3258277   2.398   4.184   2.303  0.0339  0.6459  0.0174
  423DOPC   C3258278   2.220   4.163   2.471  0.1530 -0.7392  0.0700
  423DOPC   H2X58279   2.134   4.232   2.484  1.5089  1.0267  0.0045
  423DOPC   H2Y58280   2.187   4.057   2.470  0.5720 -0.8992  1.2584
  423DOPC   C2358281   2.518   4.643   2.310 -0.7093  0.1083  1.2478
  423DOPC   H3R58282   2.460   4.734   2.283  0.5603  0.1653 -1.6799
  423DOPC   H3S58283   2.623   4.671   2.334 -0.2769 -0.6743  0.3518
  423DOPC   C2458284   2.447   4.576   2.425 -0.2796  0.5538 -0.5869
  423DOPC   H4R58285   2.472   4.469   2.410 -1.9185 -0.0293  0.5439
  423DOPC   H4S58286   2.338   4.571   2.404 -0.8711  0.9777  1.9922
  423DOPC   C2558287   2.480   4.628   2.564 -0.0142 -0.1984 -0.0720
  423DOPC   H5R58288   2.426   4.724   2.577 -0.1820 -0.1612 -0.9360
  423DOPC   H5S58289   2.588   4.653   2.578 -0.9674  3.5358  1.8835
  423DOPC   C2658290   2.437   4.526   2.672 -0.0881  0.1880  0.4415
  423DOPC   H6R58291   2.488   4.428   2.656 -2.1670 -0.9226  0.2596
  423DOPC   H6S58292   2.327   4.511   2.670 -0.1137  0.0918 -2.6324
  423DOPC   C2758293   2.488   4.576   2.810 -0.0794 -0.2102  0.2542
  423DOPC   H7R58294   2.444   4.675   2.832 -0.4634 -0.4426  0.5371
  423DOPC   H7S58295   2.595   4.601   2.789 -0.6823  1.1150 -1.4397
  423DOPC   C2858296   2.482   4.474   2.925 -0.2747  0.3817  0.2024
  423DOPC   H8R58297   2.543   4.505   3.013 -0.1670  0.8998 -0.0524
  423DOPC   H8S58298   2.529   4.384   2.880 -0.2547  0.3659  0.2548
  423DOPC   C2958299   2.335   4.448   2.943 -0.0444 -0.1387 -0.5981
  423DOPC   H9R58300   2.265   4.477   2.863 -4.0617  1.6251  3.1137
  423DOPC  C21058301   2.285   4.386   3.054 -0.5747  0.6660 -0.8756
  423DOPC  H10R58302   2.180   4.357   3.065 -0.2301  0.1028  1.4843
  423DOPC  C21158303   2.360   4.337   3.178  0.2738  0.0882 -0.0158
  423DOPC  H11R58304   2.466   4.371   3.176  0.1005  0.6413 -0.2611
  423DOPC  H11S58305   2.360   4.226   3.178 -0.6410  0.0266  2.5151
  423DOPC  C21258306   2.298   4.388   3.311 -0.4966  0.0230  0.5437
  423DOPC  H12R58307   2.363   4.342   3.389  0.2886 -1.6998 -1.0471
  423DOPC  H12S58308   2.194   4.351   3.329 -1.2633  1.6893 -0.2829
  423DOPC  C21358309   2.314   4.537   3.329 -0.0839 -0.1170 -0.3829
  423DOPC  H13R58310   2.241   4.599   3.272 -0.3434 -0.8315 -0.8364
  423DOPC  H13S58311   2.416   4.570   3.299  0.0878 -0.3245 -0.0259
  423DOPC  C21458312   2.302   4.584   3.474  0.2257 -0.1089  0.1228
  423DOPC  H14R58313   2.351   4.509   3.539 -0.1281 -0.5000 -0.0639
  423DOPC  H14S58314   2.194   4.593   3.497 -0.4611  1.5378 -3.1500
  423DOPC  C21558315   2.380   4.713   3.493  0.2746  0.4693  0.3391
  423DOPC  H15R58316   2.346   4.784   3.414 -0.2481  1.7484  1.6542
  423DOPC  H15S58317   2.488   4.690   3.486 -0.1783 -1.2457 -3.3818
  423DOPC  C21658318   2.358   4.777   3.628 -0.6528 -0.4867  0.3697
  423DOPC  H16R58319   2.249   4.800   3.640 -0.2770  2.0079 -0.3323
  423DOPC  H16S58320   2.411   4.873   3.643  0.8406 -1.1815 -0.3040
  423DOPC  C21758321   2.404   4.695   3.746 -0.5285 -0.2821  0.1360
  423DOPC  H17R58322   2.514   4.686   3.753 -0.5548 -0.1959  0.7119
  423DOPC  H17S58323   2.368   4.590   3.741  3.1004 -1.6111 -0.6862
  423DOPC  C21858324   2.362   4.754   3.882  0.1449  0.7115 -0.0682
  423DOPC  H18R58325   2.251   4.754   3.885  0.1398  2.1246  0.1597
  423DOPC  H18S58326   2.420   4.849   3.888  1.8022 -0.0317 -2.4122
  423DOPC  H18T58327   2.399   4.688   3.963 -3.3006 -1.8256 -0.3544
  423DOPC   C3358328   2.318   4.186   2.597  0.2786  0.6640  0.2659
  423DOPC   H3X58329   2.293   4.287   2.637  1.4223  1.2692 -0.4947
  423DOPC   H3Y58330   2.424   4.185   2.564  0.3081 -0.0866  0.3808
  423DOPC   C3458331   2.296   4.087   2.714  0.3267 -0.4036 -0.1621
  423DOPC   H4X58332   2.386   4.092   2.780 -1.1682  0.3519  1.9465
  423DOPC   H4Y58333   2.291   3.987   2.666 -1.5393 -0.4103 -0.0311
  423DOPC   C3558334   2.166   4.126   2.801  0.2949 -0.0822  0.3968
  423DOPC   H5X58335   2.072   4.117   2.743  0.4415  0.7775  0.0041
  423DOPC   H5Y58336   2.184   4.228   2.841  2.6433 -1.1233  2.2639
  423DOPC   C3658337   2.156   4.037   2.927  0.9565  0.4309  0.0370
  423DOPC   H6X58338   2.138   3.933   2.893 -1.1686  1.0234 -0.7698
  423DOPC   H6Y58339   2.255   4.024   2.977  1.1217 -0.1258 -0.4244
  423DOPC   C3758340   2.048   4.081   3.021 -0.3838 -0.3836  0.0176
  423DOPC   H7X58341   2.079   4.180   3.062 -2.4922 -0.2582  1.4233
  423DOPC   H7Y58342   1.951   4.090   2.968  0.5092 -1.2213 -1.8650
  423DOPC   C3858343   2.038   3.992   3.148 -0.6851 -0.5236  0.3363
  423DOPC   H8X58344   1.974   4.035   3.228 -0.8073 -1.2136  0.6132
  423DOPC   H8Y58345   2.137   3.998   3.198 -0.4478 -0.0512 -0.1739
  423DOPC   C3958346   1.988   3.858   3.110 -0.1152  0.1397 -0.0839
  423DOPC   H9X58347   2.050   3.807   3.034  0.6892  1.1728 -0.1470
  423DOPC  C31058348   1.874   3.801   3.148 -0.0597 -0.3109 -0.1796
  423DOPC  H10X58349   1.842   3.707   3.100  0.5235 -0.4924 -0.2139
  423DOPC  C31158350   1.782   3.858   3.256  0.5451 -0.0668 -0.1808
  423DOPC  H11X58351   1.675   3.842   3.230  0.3478  2.2212 -0.9878
  423DOPC  H11Y58352   1.789   3.968   3.271 -2.8908  0.4594 -1.5719
  423DOPC  C31258353   1.810   3.793   3.393 -0.3066 -1.0274  0.4464
  423DOPC  H12X58354   1.917   3.765   3.403  0.5962  1.6361 -0.7962
  423DOPC  H12Y58355   1.755   3.696   3.389 -1.5181 -0.3570  0.5787
  423DOPC  C31358356   1.776   3.865   3.520 -0.2975  0.0478 -0.3921
  423DOPC  H13X58357   1.807   3.800   3.604 -0.0450  1.8943  1.0197
  423DOPC  H13Y58358   1.837   3.958   3.518  2.6252 -1.7342  0.4293
  423DOPC  C31458359   1.618   3.887   3.535 -0.7939 -0.2444  0.3337
  423DOPC  H14X58360   1.570   3.936   3.448 -1.5139 -0.7803  0.4191
  423DOPC  H14Y58361   1.571   3.787   3.544 -0.1837 -0.5696 -0.0111
  423DOPC  C31558362   1.598   3.962   3.671  0.0108  0.7518 -0.7490
  423DOPC  H15X58363   1.657   4.056   3.672 -2.3511  2.4351 -3.1502
  423DOPC  H15Y58364   1.627   3.893   3.752 -1.6525  1.2588  0.3333
  423DOPC  C31658365   1.457   4.010   3.690  0.4401 -0.8056  0.4996
  423DOPC  H16X58366   1.451   4.056   3.791 -0.6382  1.1298 -0.3991
  423DOPC  H16Y58367   1.430   4.088   3.616  0.7970 -1.8107 -0.7288
  423DOPC  C31758368   1.335   3.909   3.678  0.1212 -0.1333 -1.0024
  423DOPC  H17X58369   1.391   3.812   3.681  0.6765  0.1408 -2.1296
  423DOPC  H17Y58370   1.268   3.937   3.762  1.4589  1.3106 -0.3662
  423DOPC  C31858371   1.259   3.908   3.540 -0.4425 -0.3563 -0.1634
  423DOPC  H18X58372   1.178   3.832   3.542  0.4356 -1.3028  0.2357
  423DOPC  H18Y58373   1.235   4.012   3.510  0.9659 -0.4408 -1.7527
  423DOPC  H18Z58374   1.323   3.871   3.457 -1.1213  0.2762 -0.9764
  424DOPC     N58375  10.041  10.671   1.355  0.4936  0.0340  1.1238
  424DOPC   C1258376   9.915  10.705   1.433 -0.6348  0.9076 -0.2314
  424DOPC  H12A58377   9.826  10.681   1.377  0.2361 -2.2999 -0.4277
  424DOPC  H12B58378   9.918  10.811   1.451  1.8035  1.2552 -2.2298
  424DOPC   C1358379  10.061  10.527   1.328  0.5439  0.5133 -0.0458
  424DOPC  H13A58380  10.158  10.504   1.288 -0.6074 -2.4596 -1.5137
  424DOPC  H13B58381  10.053  10.467   1.418  1.2775 -0.3341 -0.5338
  424DOPC  H13C58382   9.989  10.481   1.262  2.2089 -0.8565 -0.9921
  424DOPC   C1458383  10.163  10.723   1.426  0.1190 -0.5603 -0.1474
  424DOPC  H14A58384  10.173  10.674   1.521 -1.5047 -0.1505  0.2621
  424DOPC  H14B58385  10.256  10.695   1.377  0.4650  1.5691 -0.8128
  424DOPC  H14C58386  10.165  10.830   1.441  0.2037 -0.4954 -0.6170
  424DOPC   C1558387  10.042  10.748   1.228 -0.2926  0.6402  0.5000
  424DOPC  H15A58388  10.121  10.706   1.168 -0.6343  0.7269 -0.0143
  424DOPC  H15B58389  10.065  10.852   1.243  0.2024  0.7756 -1.0323
  424DOPC  H15C58390   9.952  10.735   1.170  1.8600 -0.7662 -2.8562
  424DOPC   C1158391   9.898  10.638   1.571 -0.1264  0.1597  0.4004
  424DOPC  H11A58392   9.997  10.633   1.622 -0.4838  0.3668  1.1275
  424DOPC  H11B58393   9.830  10.702   1.630 -1.0467  0.5791 -1.0836
  424DOPC     P58394   9.864  10.383   1.618 -0.3021  0.1295 -0.4795
  424DOPC   O1358395  10.005  10.362   1.647  0.1477 -0.2190  0.4865
  424DOPC   O1458396   9.789  10.278   1.540 -0.0726 -0.3248  0.4763
  424DOPC   O1258397   9.841  10.513   1.543  0.9572  0.2523 -0.0805
  424DOPC   O1158398   9.779  10.428   1.750  0.0966  0.7929  0.5702
  424DOPC    C158399   9.840  10.494   1.855 -0.5843 -0.9427  0.2061
  424DOPC    HA58400   9.783  10.584   1.884  2.8970  1.5744 -0.0669
  424DOPC    HB58401   9.925  10.553   1.815 -1.3683 -0.0430 -0.1630
  424DOPC    C258402   9.884  10.411   1.978  0.2508  0.5486  0.4246
  424DOPC    HS58403   9.904  10.308   1.942  1.1913  0.6849  0.5487
  424DOPC   O2158404   9.781  10.412   2.084  0.4926  0.3115  0.4015
  424DOPC   C2158405   9.750  10.294   2.129 -0.2329 -0.6947 -0.3992
  424DOPC   O2258406   9.801  10.190   2.098  0.2544 -0.8316  0.7145
  424DOPC   C2258407   9.647  10.314   2.240  0.6654 -0.0415  1.2360
  424DOPC   H2R58408   9.550  10.336   2.191  0.2384 -1.4756  1.3639
  424DOPC   H2S58409   9.668  10.400   2.307 -2.6912  0.9679  1.1981
  424DOPC    C358410  10.012  10.469   2.049 -0.1096 -0.1287 -0.2838
  424DOPC    HX58411   9.992  10.574   2.079  1.7941  0.0199  0.6312
  424DOPC    HY58412  10.092  10.479   1.972  0.2482  1.2001  0.2311
  424DOPC   O3158413  10.048  10.388   2.164  0.1919  0.3256  0.0318
  424DOPC   C3158414  10.130  10.290   2.139 -0.2771  0.5661  0.6777
  424DOPC   O3258415  10.163  10.256   2.025  0.0934  0.1135  0.1197
  424DOPC   C3258416  10.167  10.216   2.267 -0.4896 -0.4415 -0.1965
  424DOPC   H2X58417  10.228  10.128   2.239 -0.2590 -0.7762  1.2979
  424DOPC   H2Y58418  10.245  10.275   2.318  0.8209 -1.5019 -0.9183
  424DOPC   C2358419   9.629  10.186   2.326  0.2628 -0.0816 -0.4892
  424DOPC   H3R58420   9.722  10.164   2.383  1.4672  3.5734 -0.7735
  424DOPC   H3S58421   9.620  10.101   2.255  1.2192 -2.1531  1.7395
  424DOPC   C2458422   9.506  10.183   2.409 -0.4460 -0.2415  0.1001
  424DOPC   H4R58423   9.494  10.079   2.446 -0.9478 -1.0564 -2.2267
  424DOPC   H4S58424   9.421  10.209   2.342 -0.1890  0.3471 -0.0063
  424DOPC   C2558425   9.527  10.271   2.534 -0.3253  0.1447  0.3853
  424DOPC   H5R58426   9.538  10.379   2.509 -2.7588  0.1557 -1.0114
  424DOPC   H5S58427   9.616  10.239   2.592  1.2522  0.1652 -1.9131
  424DOPC   C2658428   9.409  10.269   2.636  0.2627  1.1198 -0.0021
  424DOPC   H6R58429   9.427  10.345   2.715 -1.6430  0.1190  1.4745
  424DOPC   H6S58430   9.396  10.169   2.683 -0.7193  0.1514 -2.1980
  424DOPC   C2758431   9.275  10.294   2.563  0.9595  0.4259 -0.1595
  424DOPC   H7R58432   9.260  10.207   2.495 -2.1821 -1.4474  2.6290
  424DOPC   H7S58433   9.275  10.385   2.500  0.9420  0.1374 -0.5854
  424DOPC   C2858434   9.155  10.303   2.661  1.0063  0.2934 -0.0208
  424DOPC   H8R58435   9.161  10.220   2.734 -1.6561  0.9921  1.0993
  424DOPC   H8S58436   9.060  10.295   2.604  0.3101 -0.5289  1.2225
  424DOPC   C2958437   9.163  10.437   2.731 -0.0533  0.1229 -0.0273
  424DOPC   H9R58438   9.129  10.520   2.667  1.9404 -0.8172 -2.4921
  424DOPC  C21058439   9.210  10.469   2.848  0.3773  0.5024  0.2953
  424DOPC  H10R58440   9.213  10.576   2.873 -1.8174  0.8911 -0.8088
  424DOPC  C21158441   9.278  10.370   2.946 -0.0801 -0.0966  0.0620
  424DOPC  H11R58442   9.388  10.375   2.929 -0.2298  2.2701 -0.5374
  424DOPC  H11S58443   9.243  10.265   2.942 -2.3173  0.6507 -1.4795
  424DOPC  C21258444   9.254  10.415   3.092 -0.4289  0.0783  0.8127
  424DOPC  H12R58445   9.144  10.412   3.106 -0.2525  1.9363  3.4974
  424DOPC  H12S58446   9.289  10.519   3.111 -1.4791  0.5229  0.4048
  424DOPC  C21358447   9.314  10.322   3.196 -0.8431 -0.2475 -0.3891
  424DOPC  H13R58448   9.424  10.324   3.185 -0.7602  0.1340  0.4649
  424DOPC  H13S58449   9.268  10.222   3.178 -0.6598 -0.3848 -0.1024
  424DOPC  C21458450   9.295  10.365   3.346 -0.6933 -0.8521  1.0916
  424DOPC  H14R58451   9.186  10.364   3.367 -1.0000 -1.8135 -0.4240
  424DOPC  H14S58452   9.340  10.467   3.339  2.7321 -2.3220 -1.5459
  424DOPC  C21558453   9.363  10.278   3.459 -0.6516  0.2119  0.5752
  424DOPC  H15R58454   9.367  10.335   3.555 -1.1434  0.4541  0.4562
  424DOPC  H15S58455   9.462  10.245   3.423 -1.3544 -1.2964 -0.0457
  424DOPC  C21658456   9.287  10.140   3.486  0.5704 -0.6481  0.3007
  424DOPC  H16R58457   9.267  10.094   3.387 -1.9847  0.9240 -0.0004
  424DOPC  H16S58458   9.194  10.181   3.532  0.0103  0.0833 -1.4094
  424DOPC  C21758459   9.360  10.043   3.580 -0.1477 -0.8506  0.5535
  424DOPC  H17R58460   9.455  10.016   3.528 -0.9650 -1.6780 -0.5525
  424DOPC  H17S58461   9.307   9.945   3.584  1.5289 -1.8278 -0.0292
  424DOPC  C21858462   9.395  10.100   3.714 -0.9269 -0.0158  0.6683
  424DOPC  H18R58463   9.305  10.098   3.778  0.4200 -0.6242  2.6654
  424DOPC  H18S58464   9.421  10.208   3.709  1.5907 -0.5040  1.3179
  424DOPC  H18T58465   9.489  10.061   3.760  0.3912  0.6227 -1.3333
  424DOPC   C3358466  10.043  10.189   2.357  0.1253  0.4861  1.1510
  424DOPC   H3X58467   9.982  10.116   2.300  2.3661  0.3601 -1.2708
  424DOPC   H3Y58468   9.987  10.282   2.381  1.4309  1.4667  0.5022
  424DOPC   C3458469  10.080  10.122   2.491 -0.0331  0.2142  0.7457
  424DOPC   H4X58470  10.129  10.201   2.551  0.5892  0.6919 -0.3661
  424DOPC   H4Y58471  10.147  10.034   2.480 -0.5672 -0.4495  2.4021
  424DOPC   C3558472   9.958  10.090   2.582 -0.1308  0.0230 -0.0794
  424DOPC   H5X58473   9.883  10.039   2.517 -1.5064  0.6302  0.9607
  424DOPC   H5Y58474   9.902  10.173   2.632  0.2742 -0.1373  0.6608
  424DOPC   C3658475  10.007  10.008   2.705  0.4752  0.8328 -0.2857
  424DOPC   H6X58476  10.089   9.934   2.692 -0.4241 -0.6228  1.8515
  424DOPC   H6Y58477  10.049  10.093   2.764 -0.6374  0.5256  0.9875
  424DOPC   C3758478   9.892   9.939   2.784 -0.0537 -0.4973  0.1429
  424DOPC   H7X58479   9.824  10.021   2.817  0.7957  0.6502 -0.8350
  424DOPC   H7Y58480   9.847   9.860   2.721 -0.7445 -0.4184  0.5299
  424DOPC   C3858481   9.965   9.856   2.901  0.2557 -0.3194 -0.3672
  424DOPC   H8X58482  10.038   9.783   2.860  2.1011  0.5386  1.2557
  424DOPC   H8Y58483   9.880   9.805   2.953 -0.7058  1.6808  0.0963
  424DOPC   C3958484  10.025   9.949   2.997 -0.9020  0.3934  0.1682
  424DOPC   H9X58485  10.134   9.941   2.985 -1.2886 -2.3625 -3.0425
  424DOPC  C31058486   9.962  10.018   3.090  0.2593 -0.0255  0.3018
  424DOPC  H10X58487  10.028  10.068   3.163  1.6670  0.4086 -1.2242
  424DOPC  C31158488   9.808  10.025   3.118  0.6721 -0.6307 -0.1433
  424DOPC  H11X58489   9.757   9.927   3.133 -0.9578 -0.2615 -2.6262
  424DOPC  H11Y58490   9.756  10.065   3.028  0.0573  1.3611  1.0288
  424DOPC  C31258491   9.770  10.102   3.245 -0.1913 -0.0771 -0.0508
  424DOPC  H12X58492   9.667  10.142   3.247 -0.7200 -1.4093  2.0302
  424DOPC  H12Y58493   9.843  10.186   3.241  0.7977 -0.9591 -1.7940
  424DOPC  C31358494   9.793  10.015   3.372  0.0407 -0.1036  0.4869
  424DOPC  H13X58495   9.711   9.941   3.383 -0.5350  0.0283 -2.2159
  424DOPC  H13Y58496   9.891   9.963   3.372  1.3172  1.8689 -3.5164
  424DOPC  C31458497   9.789  10.098   3.505 -0.1583  0.9389  0.1243
  424DOPC  H14X58498   9.878  10.165   3.506  0.2235  0.4593 -0.4060
  424DOPC  H14Y58499   9.698  10.161   3.495 -0.5961  0.2916 -0.0016
  424DOPC  C31558500   9.788  10.009   3.630 -0.4829  0.5067  0.1915
  424DOPC  H15X58501   9.871   9.935   3.628 -0.7533  0.1394  1.5786
  424DOPC  H15Y58502   9.699   9.950   3.660 -1.1220  2.2434  1.9206
  424DOPC  C31658503   9.808  10.091   3.760  0.0636 -0.0920  0.3781
  424DOPC  H16X58504   9.898  10.156   3.753  0.4011 -0.1701  2.9990
  424DOPC  H16Y58505   9.711  10.142   3.771  0.6329  1.3266 -0.8255
  424DOPC  C31758506   9.828  10.012   3.893 -0.5025 -0.1563  0.1172
  424DOPC  H17X58507   9.760   9.924   3.890 -0.4343 -0.2648  1.3738
  424DOPC  H17Y58508   9.933   9.979   3.905 -0.7431 -1.1216 -0.3020
  424DOPC  C31858509   9.795  10.094   4.019 -0.3981  0.1143 -0.3123
  424DOPC  H18X58510   9.872  10.174   4.019  0.4385 -0.5561 -3.3007
  424DOPC  H18Y58511   9.693  10.137   4.021 -1.2849 -1.0254 -5.5939
  424DOPC  H18Z58512   9.798  10.032   4.111  1.0505 -0.7778 -0.9260
  425DOPC     N58513  12.140   0.065   2.050  1.4139  0.3105 -0.0198
  425DOPC   C1258514  12.248   0.050   2.157  0.4892  0.1278  0.4431
  425DOPC  H12A58515  12.231  -0.033   2.225  1.2590 -0.9568 -0.6400
  425DOPC  H12B58516  12.249   0.138   2.220  0.6540  0.4041  0.0585
  425DOPC   C1358517  12.018   0.115   2.112  0.1915  0.6807  0.3763
  425DOPC  H13A58518  12.042   0.208   2.162 -0.7959 -0.5262  3.3052
  425DOPC  H13B58519  11.938   0.130   2.041 -0.3380  0.1306  0.8408
  425DOPC  H13C58520  11.977   0.037   2.174 -0.0225  1.0958  0.7657
  425DOPC   C1458521  12.118  -0.053   1.968 -0.0774  1.1413 -0.3770
  425DOPC  H14A58522  12.074  -0.135   2.023  1.0822 -1.4328 -2.9689
  425DOPC  H14B58523  12.064  -0.042   1.875  1.3218 -0.0356 -1.3888
  425DOPC  H14C58524  12.211  -0.103   1.943 -0.3052  0.8372 -0.6354
  425DOPC   C1558525  12.187   0.169   1.953 -0.7057 -0.1924 -0.5417
  425DOPC  H15A58526  12.198   0.265   2.000 -0.2504 -0.3606 -0.3018
  425DOPC  H15B58527  12.116   0.182   1.873 -1.7477  1.9744  0.6542
  425DOPC  H15C58528  12.279   0.132   1.911 -0.3110  2.6990 -2.4977
  425DOPC   C1158529  12.388   0.040   2.103 -0.4087  0.0420  0.1638
  425DOPC  H11A58530  12.427   0.129   2.049  2.4170 -2.6194 -2.5933
  425DOPC  H11B58531  12.463   0.043   2.185 -1.3941  2.5258  1.0854
  425DOPC     P58532  12.418  -0.221   2.063 -0.2851  0.0969 -0.1038
  425DOPC   O1358533  12.558  -0.266   2.046 -0.3244  0.2171  0.5815
  425DOPC   O1458534  12.317  -0.299   1.990  0.3291 -0.3744  0.2097
  425DOPC   O1258535  12.413  -0.070   2.021  0.3180 -0.2340  0.3256
  425DOPC   O1158536  12.380  -0.222   2.214 -0.5647 -0.2343 -0.1928
  425DOPC    C158537  12.354  -0.347   2.283  0.0430 -0.0952  0.1315
  425DOPC    HA58538  12.447  -0.377   2.335  1.7014 -0.1088 -2.6284
  425DOPC    HB58539  12.314  -0.426   2.216  0.1017  0.1287 -0.1684
  425DOPC    C258540  12.244  -0.339   2.385  0.1394  0.1509  0.3745
  425DOPC    HS58541  12.160  -0.280   2.343 -1.0768 -0.8052  1.3813
  425DOPC   O2158542  12.300  -0.275   2.501 -0.0478  0.0799 -0.7919
  425DOPC   C2158543  12.304  -0.146   2.486 -0.0027  0.5611 -0.2343
  425DOPC   O2258544  12.241  -0.069   2.418 -0.0088 -0.5241  0.1203
  425DOPC   C2258545  12.387  -0.096   2.599 -0.2126  0.3171  0.0795
  425DOPC   H2R58546  12.495  -0.112   2.578 -0.5710 -0.0750 -1.6189
  425DOPC   H2S58547  12.366  -0.158   2.689  1.5146  0.4120  0.5731
  425DOPC    C358548  12.174  -0.473   2.419 -0.1984 -0.2810 -0.2892
  425DOPC    HX58549  12.259  -0.541   2.442  2.4029  2.9682  0.4508
  425DOPC    HY58550  12.132  -0.517   2.326  2.5633 -2.0457 -0.8384
  425DOPC   O3158551  12.086  -0.463   2.538  0.1629 -0.0364  0.1781
  425DOPC   C3158552  11.961  -0.439   2.514  0.2406 -0.4930 -0.3052
  425DOPC   O3258553  11.906  -0.411   2.405 -0.8392 -0.0555  0.2438
  425DOPC   C3258554  11.882  -0.444   2.652 -0.4312  0.7948  0.3233
  425DOPC   H2X58555  11.782  -0.492   2.642 -0.3321  0.4318  1.0386
  425DOPC   H2Y58556  11.935  -0.516   2.717  0.6254  0.7474 -0.5743
  425DOPC   C2358557  12.380   0.055   2.625 -0.6890  0.6088 -0.2868
  425DOPC   H3R58558  12.280   0.070   2.669  0.1782 -0.7782  2.4063
  425DOPC   H3S58559  12.384   0.116   2.533 -0.6519  1.2366  0.1241
  425DOPC   C2458560  12.489   0.105   2.719 -0.0337  0.6008  0.3153
  425DOPC   H4R58561  12.455   0.208   2.738 -2.8467 -0.0300 -0.8685
  425DOPC   H4S58562  12.583   0.106   2.659 -2.4258 -0.5368 -3.8538
  425DOPC   C2558563  12.502   0.029   2.855 -0.0196  0.0919  1.0416
  425DOPC   H5R58564  12.524  -0.078   2.836 -1.4475  0.1219 -1.1765
  425DOPC   H5S58565  12.412   0.052   2.915  0.5829  4.8696  0.5145
  425DOPC   C2658566  12.615   0.087   2.945  0.5870 -0.1508  0.0810
  425DOPC   H6R58567  12.585   0.189   2.977  3.8145  0.7363  0.6245
  425DOPC   H6S58568  12.707   0.105   2.885  1.0989  0.2193  0.9674
  425DOPC   C2758569  12.642  -0.009   3.065  0.3165  0.2531  1.1269
  425DOPC   H7R58570  12.749   0.007   3.088  1.2252  0.1356 -2.5230
  425DOPC   H7S58571  12.641  -0.118   3.043  0.5295 -0.0226  2.3968
  425DOPC   C2858572  12.544   0.005   3.183  0.6336  0.1703 -0.7640
  425DOPC   H8R58573  12.563  -0.079   3.254 -2.0276 -0.3019 -0.5151
  425DOPC   H8S58574  12.439  -0.012   3.152  0.6160 -1.3036  0.0415
  425DOPC   C2958575  12.552   0.135   3.255  0.1285 -0.0594  0.0551
  425DOPC   H9R58576  12.546   0.224   3.191  0.3897  0.5914  0.9296
  425DOPC  C21058577  12.559   0.151   3.391 -0.0252 -0.1654  0.4009
  425DOPC  H10R58578  12.572   0.252   3.432  2.6901 -0.7001  1.0230
  425DOPC  C21158579  12.549   0.033   3.479  0.1154  0.4499 -0.5457
  425DOPC  H11R58580  12.637  -0.032   3.461  0.4284  0.4374  0.9061
  425DOPC  H11S58581  12.454  -0.018   3.453 -0.4347  1.8196 -1.3390
  425DOPC  C21258582  12.545   0.065   3.630  1.0598 -0.3355 -0.1383
  425DOPC  H12R58583  12.467   0.141   3.652  0.1245 -1.4558  0.4998
  425DOPC  H12S58584  12.643   0.094   3.673  0.4953 -1.6061  2.1667
  425DOPC  C21358585  12.502  -0.058   3.725  0.4663 -0.0893 -0.2400
  425DOPC  H13R58586  12.501  -0.025   3.831  0.1984 -0.5928 -0.0799
  425DOPC  H13S58587  12.562  -0.151   3.719 -1.7789 -1.7855  1.6773
  425DOPC  C21458588  12.362  -0.122   3.692 -0.0471  0.3409 -0.6612
  425DOPC  H14R58589  12.376  -0.172   3.594  1.4074 -0.2565 -0.1699
  425DOPC  H14S58590  12.283  -0.048   3.666 -0.8183  0.0103  0.6276
  425DOPC  C21558591  12.319  -0.218   3.802  0.3558 -0.0258  0.3686
  425DOPC  H15R58592  12.210  -0.233   3.784 -0.0755 -0.8042  3.1374
  425DOPC  H15S58593  12.321  -0.179   3.906 -0.8207 -0.9541  0.7611
  425DOPC  C21658594  12.407  -0.344   3.810 -1.3041  0.3748  0.2700
  425DOPC  H16R58595  12.507  -0.314   3.848  0.0061 -3.3608  0.1837
  425DOPC  H16S58596  12.418  -0.402   3.716  1.0057  1.4755 -0.2107
  425DOPC  C21758597  12.354  -0.443   3.923  0.2804 -1.0090  0.4231
  425DOPC  H17R58598  12.245  -0.427   3.937  0.1213 -2.4020  0.9020
  425DOPC  H17S58599  12.407  -0.437   4.020  0.5800 -0.5958  0.2374
  425DOPC  C21858600  12.372  -0.595   3.888  0.2927 -0.0217 -0.5768
  425DOPC  H18R58601  12.292  -0.621   3.816 -0.0398  0.3799 -0.3615
  425DOPC  H18S58602  12.355  -0.668   3.970 -0.5617  1.5982  0.7647
  425DOPC  H18T58603  12.475  -0.599   3.847  0.0987 -0.5748 -1.0222
  425DOPC   C3358604  11.866  -0.305   2.715 -0.1776  0.1794 -0.2893
  425DOPC   H3X58605  11.790  -0.297   2.796  0.1499  1.3504 -0.0773
  425DOPC   H3Y58606  11.832  -0.238   2.633 -0.8255  2.0977  1.4488
  425DOPC   C3458607  11.995  -0.242   2.771 -0.0821 -0.1918  0.1463
  425DOPC   H4X58608  11.964  -0.152   2.829 -3.0719  0.3900 -2.1317
  425DOPC   H4Y58609  12.063  -0.226   2.685 -1.4066 -4.2904 -1.8810
  425DOPC   C3558610  12.070  -0.322   2.879  0.0424 -0.6575 -0.4211
  425DOPC   H5X58611  12.159  -0.270   2.920  0.2560  0.2781 -1.9849
  425DOPC   H5Y58612  12.096  -0.423   2.840  0.8480  0.0140 -1.7131
  425DOPC   C3658613  11.970  -0.355   2.997  0.5588 -0.0782 -0.6360
  425DOPC   H6X58614  11.924  -0.260   3.031  2.5465  0.3534  1.0415
  425DOPC   H6Y58615  11.893  -0.428   2.966  1.3663 -0.7619 -1.0792
  425DOPC   C3758616  12.055  -0.411   3.113 -0.0881 -0.7860 -0.1432
  425DOPC   H7X58617  12.107  -0.503   3.081 -0.3703 -0.4776 -1.5589
  425DOPC   H7Y58618  12.131  -0.333   3.138  0.8321 -1.9933  0.9731
  425DOPC   C3858619  11.968  -0.435   3.238  0.2993 -0.2842 -0.3921
  425DOPC   H8X58620  11.879  -0.489   3.197 -0.8526  1.5970 -0.4659
  425DOPC   H8Y58621  11.928  -0.339   3.275  1.1325 -0.0665 -0.0464
  425DOPC   C3958622  12.042  -0.513   3.345  1.0262 -0.0508 -0.1782
  425DOPC   H9X58623  12.127  -0.567   3.301  0.3419  1.2969 -3.4301
  425DOPC  C31058624  12.024  -0.505   3.477 -0.5215 -0.2495  0.1662
  425DOPC  H10X58625  12.100  -0.565   3.528 -1.3612 -2.9791 -1.6109
  425DOPC  C31158626  11.930  -0.430   3.555 -0.6646 -0.9826  0.9981
  425DOPC  H11X58627  11.879  -0.363   3.482  1.3877 -1.7775 -1.2726
  425DOPC  H11Y58628  11.986  -0.363   3.624  2.1563  0.2351 -2.2439
  425DOPC  C31258629  11.837  -0.509   3.646 -0.3443 -0.1814  0.5248
  425DOPC  H12X58630  11.889  -0.556   3.732  1.4555 -1.4607 -1.1679
  425DOPC  H12Y58631  11.790  -0.594   3.591 -0.8186  0.0497  0.5631
  425DOPC  C31358632  11.717  -0.425   3.701  0.0306  0.5161 -0.3488
  425DOPC  H13X58633  11.656  -0.387   3.616 -0.2376 -0.1220 -0.4422
  425DOPC  H13Y58634  11.655  -0.494   3.761  1.2217  0.3388  0.7167
  425DOPC  C31458635  11.755  -0.301   3.785 -0.0347 -0.3083  0.1830
  425DOPC  H14X58636  11.811  -0.330   3.876 -0.5265 -1.7332  0.0556
  425DOPC  H14Y58637  11.826  -0.247   3.719  1.0099  1.1984  2.4156
  425DOPC  C31558638  11.635  -0.209   3.825 -0.0450  0.4715 -0.0679
  425DOPC  H15X58639  11.562  -0.265   3.886 -0.0984 -1.3001 -1.6455
  425DOPC  H15Y58640  11.584  -0.178   3.731  0.8620  0.8349 -0.4540
  425DOPC  C31658641  11.684  -0.087   3.901 -0.0674  0.2696  0.1014
  425DOPC  H16X58642  11.591  -0.039   3.939 -0.0120  1.3274 -1.0393
  425DOPC  H16Y58643  11.737  -0.130   3.988 -0.9770  0.2460  0.6583
  425DOPC  C31758644  11.759   0.019   3.824 -0.0584 -0.2915 -0.7077
  425DOPC  H17X58645  11.862  -0.021   3.809  0.9836  1.9724 -0.0352
  425DOPC  H17Y58646  11.709   0.033   3.726 -0.1632 -0.8160 -0.7306
  425DOPC  C31858647  11.763   0.150   3.900 -0.0807 -0.1176 -0.3283
  425DOPC  H18X58648  11.831   0.222   3.849 -0.6034 -0.6694 -1.8440
  425DOPC  H18Y58649  11.668   0.199   3.929  0.2920 -1.2017  3.1988
  425DOPC  H18Z58650  11.812   0.126   3.997  0.1394  0.2058 -0.3561
  426DOPC     N58651  10.723   9.425   1.659 -0.5024 -0.5221 -0.6036
  426DOPC   C1258652  10.615   9.441   1.768  0.1877  0.0450  0.5313
  426DOPC  H12A58653  10.580   9.344   1.800  0.1664 -0.3401 -0.5909
  426DOPC  H12B58654  10.535   9.494   1.717 -0.3742 -1.1757  0.1018
  426DOPC   C1358655  10.684   9.337   1.547  0.0841  0.7248 -0.5936
  426DOPC  H13A58656  10.601   9.379   1.492 -0.9126 -1.4640 -0.8426
  426DOPC  H13B58657  10.764   9.310   1.479 -0.0794  0.6757 -0.7675
  426DOPC  H13C58658  10.646   9.247   1.592  0.3863  1.0032  0.2377
  426DOPC   C1458659  10.851   9.374   1.717  0.5181 -0.6069  0.3760
  426DOPC  H14A58660  10.870   9.433   1.805  0.5749  1.3833 -0.8989
  426DOPC  H14B58661  10.833   9.270   1.740 -0.3056 -1.3230 -2.9148
  426DOPC  H14C58662  10.938   9.384   1.654  0.5345 -1.2749  0.2888
  426DOPC   C1558663  10.762   9.559   1.603  0.7676  0.8278  0.5470
  426DOPC  H15A58664  10.843   9.553   1.531 -0.5156  1.1900 -0.9966
  426DOPC  H15B58665  10.795   9.625   1.681 -1.0044  1.0222  1.1561
  426DOPC  H15C58666  10.681   9.606   1.549 -0.1608 -0.6990  0.5300
  426DOPC   C1158667  10.662   9.530   1.883  0.0535  0.0980 -0.0944
  426DOPC  H11A58668  10.590   9.519   1.967  0.3328  0.9000  0.2687
  426DOPC  H11B58669  10.753   9.489   1.930  1.1769  4.2336  1.8558
  426DOPC     P58670  10.574   9.774   1.843 -0.0689  0.1303  0.1463
  426DOPC   O1358671  10.446   9.717   1.796 -0.2230  0.5120 -0.2942
  426DOPC   O1458672  10.622   9.890   1.770 -1.4348 -0.2026 -0.8723
  426DOPC   O1258673  10.685   9.667   1.846 -0.0376 -0.3440  0.2030
  426DOPC   O1158674  10.552   9.824   1.995 -0.1686  0.6585  0.3981
  426DOPC    C158675  10.654   9.883   2.079  0.6756  0.1986  0.3471
  426DOPC    HA58676  10.630   9.989   2.100  2.7358  0.6249  0.8053
  426DOPC    HB58677  10.757   9.865   2.039  0.9743 -1.3344  1.6857
  426DOPC    C258678  10.655   9.813   2.219 -0.2646  0.2250 -0.4935
  426DOPC    HS58679  10.688   9.708   2.201 -0.8198 -0.0132 -0.1248
  426DOPC   O2158680  10.526   9.810   2.270 -0.1170 -0.1480 -0.0153
  426DOPC   C2158681  10.499   9.734   2.376 -0.1510  0.1473 -0.3456
  426DOPC   O2258682  10.574   9.658   2.432 -0.0289  0.5663  0.3522
  426DOPC   C2258683  10.355   9.751   2.419  0.2580  0.0188  0.3284
  426DOPC   H2R58684  10.298   9.663   2.385  0.2063  0.2167 -0.1027
  426DOPC   H2S58685  10.309   9.841   2.372  0.1886  0.2736  0.8675
  426DOPC    C358686  10.748   9.882   2.322 -0.2087  0.4295  0.1697
  426DOPC    HX58687  10.764   9.819   2.412  0.1306  1.6641  0.9864
  426DOPC    HY58688  10.697   9.976   2.350  1.2056  2.5810 -3.6704
  426DOPC   O3158689  10.870   9.934   2.268  0.8357  0.7317 -0.1932
  426DOPC   C3158690  10.976   9.849   2.264  0.2198  0.9505 -0.4806
  426DOPC   O3258691  10.971   9.733   2.297 -0.1179 -0.0019 -0.2612
  426DOPC   C3258692  11.101   9.926   2.231  0.6163  0.0364  0.1727
  426DOPC   H2X58693  11.098   9.948   2.123 -0.8047  1.1626  0.4058
  426DOPC   H2Y58694  11.093  10.022   2.287 -0.3668  0.0821 -0.0255
  426DOPC   C2358695  10.343   9.777   2.577  0.0542 -0.3059  0.3718
  426DOPC   H3R58696  10.380   9.681   2.620 -1.5430 -1.0702  0.1150
  426DOPC   H3S58697  10.235   9.790   2.599 -0.1440  1.5407 -1.4708
  426DOPC   C2458698  10.430   9.888   2.626 -0.9499  0.1508 -0.4046
  426DOPC   H4R58699  10.377   9.983   2.649 -1.1923  0.1206 -0.8212
  426DOPC   H4S58700  10.520   9.914   2.565 -0.9060 -3.0925 -1.8972
  426DOPC   C2558701  10.483   9.858   2.768 -0.1008  0.2090 -0.1986
  426DOPC   H5R58702  10.544   9.947   2.792  1.6450 -0.1870 -2.8090
  426DOPC   H5S58703  10.541   9.765   2.754 -1.7720 -0.7292 -1.1722
  426DOPC   C2658704  10.367   9.820   2.870 -0.5263 -0.4314  0.5293
  426DOPC   H6R58705  10.310   9.725   2.857 -1.4879  0.3082 -1.0198
  426DOPC   H6S58706  10.296   9.905   2.859  1.0276  0.7047 -1.4860
  426DOPC   C2758707  10.421   9.819   3.013  0.1960 -0.3068  0.3330
  426DOPC   H7R58708  10.511   9.754   3.003  0.9186  0.5067  1.2647
  426DOPC   H7S58709  10.346   9.767   3.076  0.5546 -0.8627  0.3095
  426DOPC   C2858710  10.459   9.953   3.076  0.3217 -0.7540  0.2203
  426DOPC   H8R58711  10.386  10.030   3.042  2.2878  0.6304 -1.1190
  426DOPC   H8S58712  10.555   9.999   3.043  0.7830 -1.9992 -0.2312
  426DOPC   C2958713  10.459   9.930   3.229 -0.5193 -0.6957 -0.7015
  426DOPC   H9R58714  10.536   9.857   3.258  0.5256  0.7973  0.4085
  426DOPC  C21058715  10.379   9.986   3.321  0.0794  0.1574 -0.9373
  426DOPC  H10R58716  10.392   9.963   3.428 -0.1034 -0.3721 -1.0233
  426DOPC  C21158717  10.267  10.080   3.295  0.2191 -0.4204 -0.0322
  426DOPC  H11R58718  10.169  10.039   3.326  1.1937 -0.5686  3.2075
  426DOPC  H11S58719  10.248  10.105   3.189  1.1476 -3.5220 -1.0658
  426DOPC  C21258720  10.285  10.216   3.359 -0.1705 -0.5506 -0.3393
  426DOPC  H12R58721  10.228  10.286   3.294  0.5872  0.0158 -0.4105
  426DOPC  H12S58722  10.393  10.244   3.357 -0.2859 -0.0745 -2.6129
  426DOPC  C21358723  10.233  10.214   3.505  0.3843 -0.1784  0.1289
  426DOPC  H13R58724  10.297  10.147   3.565  3.0167  2.7189  0.7854
  426DOPC  H13S58725  10.128  10.181   3.485 -0.3665  2.1417 -0.0936
  426DOPC  C21458726  10.218  10.354   3.563  0.1026 -0.2847  0.6347
  426DOPC  H14R58727  10.164  10.420   3.491  0.8510  0.3326  0.6253
  426DOPC  H14S58728  10.311  10.413   3.577 -0.8733  1.8770 -1.3274
  426DOPC  C21558729  10.149  10.343   3.698  0.0664 -0.2810  0.4827
  426DOPC  H15R58730  10.224  10.292   3.762  0.0070 -1.6900 -0.5265
  426DOPC  H15S58731  10.063  10.273   3.690 -0.8965  1.0920 -2.5416
  426DOPC  C21658732  10.088  10.473   3.745  0.5757  0.3528  0.9651
  426DOPC  H16R58733  10.021  10.511   3.664  2.1829 -2.8119 -2.1186
  426DOPC  H16S58734  10.163  10.551   3.772  0.6291  0.0351  1.7400
  426DOPC  C21758735  10.007  10.459   3.875  0.9994  0.5652  0.3954
  426DOPC  H17R58736   9.925  10.387   3.855  0.7232  0.2015  2.6562
  426DOPC  H17S58737   9.975  10.562   3.902  1.0260  0.1399  2.1231
  426DOPC  C21858738  10.086  10.408   3.993 -0.1195  0.5827 -0.3436
  426DOPC  H18R58739  10.030  10.413   4.089 -0.3977  1.4080 -0.5444
  426DOPC  H18S58740  10.180  10.460   4.021  1.3304 -3.4007  3.4558
  426DOPC  H18T58741  10.116  10.302   3.985  0.5225  0.5147  2.0485
  426DOPC   C3358742  11.228   9.852   2.261 -0.0689  0.5871  0.0649
  426DOPC   H3X58743  11.313   9.904   2.212  0.3794 -2.1566 -2.3701
  426DOPC   H3Y58744  11.238   9.751   2.215  0.2380  0.0210  1.3253
  426DOPC   C3458745  11.245   9.828   2.408  0.2571 -0.4442  0.5136
  426DOPC   H4X58746  11.162   9.770   2.453 -0.7198  0.7421  0.2791
  426DOPC   H4Y58747  11.264   9.929   2.451  0.3601 -0.0060 -0.5274
  426DOPC   C3558748  11.378   9.757   2.434 -0.3512 -0.9994 -0.4642
  426DOPC   H5X58749  11.468   9.811   2.397  1.4697 -2.0861  2.0087
  426DOPC   H5Y58750  11.377   9.667   2.370  0.0275  0.1201 -2.0941
  426DOPC   C3658751  11.388   9.740   2.585 -0.6313  0.0303  0.0148
  426DOPC   H6X58752  11.383   9.838   2.638 -0.5629 -1.5542  3.2304
  426DOPC   H6Y58753  11.306   9.676   2.624  0.0382 -0.3168  0.8977
  426DOPC   C3758754  11.522   9.672   2.606  0.4184  0.0763  0.8696
  426DOPC   H7X58755  11.521   9.568   2.566  3.3248  0.7025 -1.1160
  426DOPC   H7Y58756  11.603   9.734   2.562 -0.1858  0.8245  0.7917
  426DOPC   C3858757  11.564   9.636   2.747 -0.1964  0.1230 -0.3213
  426DOPC   H8X58758  11.675   9.626   2.739 -0.1109 -0.0473  0.8464
  426DOPC   H8Y58759  11.532   9.535   2.779  2.1893 -1.0956 -1.4921
  426DOPC   C3958760  11.541   9.735   2.849 -0.1338  0.5012  0.5043
  426DOPC   H9X58761  11.477   9.821   2.824  2.0121  1.1816 -3.4845
  426DOPC  C31058762  11.582   9.717   2.972  0.0057 -0.3919  0.2850
  426DOPC  H10X58763  11.550   9.792   3.047  1.0310  0.9627 -0.5976
  426DOPC  C31158764  11.657   9.602   3.026  0.2890  0.5707 -0.6690
  426DOPC  H11X58765  11.763   9.628   3.048  0.6155 -2.3048  1.7123
  426DOPC  H11Y58766  11.662   9.512   2.961 -1.8816 -0.3561  0.3533
  426DOPC  C31258767  11.592   9.543   3.153  0.2566 -0.1419 -0.7958
  426DOPC  H12X58768  11.509   9.474   3.126 -0.8442  0.2274  1.4089
  426DOPC  H12Y58769  11.543   9.616   3.221  0.1693  0.2537 -1.2736
  426DOPC  C31358770  11.692   9.460   3.239  0.7303  0.3584  0.3338
  426DOPC  H13X58771  11.740   9.383   3.175 -0.9139  0.2325 -0.8157
  426DOPC  H13Y58772  11.774   9.526   3.272 -0.3690  1.1682  1.5821
  426DOPC  C31458773  11.640   9.418   3.374  0.1828 -0.1791  0.0570
  426DOPC  H14X58774  11.613   9.510   3.430  2.1766  0.1468  0.5518
  426DOPC  H14Y58775  11.546   9.360   3.358 -0.4203  1.3583 -2.5488
  426DOPC  C31558776  11.736   9.338   3.458 -0.5183  0.3246  0.1623
  426DOPC  H15X58777  11.828   9.399   3.471  0.5932 -1.2227 -0.0763
  426DOPC  H15Y58778  11.765   9.242   3.410  1.2490  1.3354 -0.8638
  426DOPC  C31658779  11.678   9.292   3.590  0.4832 -0.0720 -0.4232
  426DOPC  H16X58780  11.755   9.255   3.661 -0.0030  1.9276  1.2501
  426DOPC  H16Y58781  11.621   9.372   3.642 -2.8508 -0.2140 -3.4663
  426DOPC  C31758782  11.573   9.176   3.579 -0.6960 -0.3418  0.2492
  426DOPC  H17X58783  11.481   9.221   3.536 -0.5878 -0.3499  0.0111
  426DOPC  H17Y58784  11.624   9.102   3.515  0.0554  1.6186 -1.5505
  426DOPC  C31858785  11.540   9.127   3.720 -0.4036  0.2478 -0.5134
  426DOPC  H18X58786  11.502   9.211   3.782  0.4219  0.5391 -0.3925
  426DOPC  H18Y58787  11.464   9.047   3.727 -1.7570  1.5096 -0.2956
  426DOPC  H18Z58788  11.633   9.084   3.763 -0.3279 -0.4868 -1.3702
  427DOPC     N58789   2.004   9.383   1.624  0.2052  0.3683  0.1547
  427DOPC   C1258790   2.107   9.378   1.741 -0.4807 -0.2497 -0.3624
  427DOPC  H12A58791   2.206   9.404   1.708 -0.4672 -1.2858 -1.1910
  427DOPC  H12B58792   2.128   9.275   1.764  2.4116  0.5065  0.8499
  427DOPC   C1358793   1.970   9.521   1.578  0.0339  0.3825  0.0905
  427DOPC  H13A58794   2.055   9.585   1.558  0.9100 -0.4731  0.9213
  427DOPC  H13B58795   1.910   9.523   1.489 -0.3737 -0.7157  0.3162
  427DOPC  H13C58796   1.911   9.566   1.657 -0.6040  0.7139 -0.5662
  427DOPC   C1458797   1.882   9.312   1.656 -0.0600 -0.4637  0.2186
  427DOPC  H14A58798   1.872   9.213   1.613  0.6866 -0.1938 -0.6151
  427DOPC  H14B58799   1.842   9.320   1.756 -2.9861  0.2876 -0.8858
  427DOPC  H14C58800   1.803   9.362   1.602 -1.5732 -2.1682  0.7374
  427DOPC   C1558801   2.067   9.312   1.508 -0.1140 -0.1650  0.3798
  427DOPC  H15A58802   2.000   9.324   1.424 -0.3605 -3.1999  0.0265
  427DOPC  H15B58803   2.078   9.208   1.538 -2.1174 -0.2204  1.0773
  427DOPC  H15C58804   2.155   9.363   1.472 -0.1320 -1.8309 -2.3537
  427DOPC   C1158805   2.079   9.464   1.867 -0.3378 -0.3972  0.4088
  427DOPC  H11A58806   2.172   9.453   1.927  0.2177 -0.6138 -0.4719
  427DOPC  H11B58807   2.061   9.572   1.849 -3.6960 -0.9097 -0.0311
  427DOPC     P58808   1.976   9.308   2.040 -0.0149  0.0560 -0.2632
  427DOPC   O1358809   2.047   9.197   1.968  0.1102  0.0273 -0.4485
  427DOPC   O1458810   1.841   9.278   2.093  0.4189 -0.0215  0.0266
  427DOPC   O1258811   1.963   9.420   1.933 -0.5614  0.5070 -0.1811
  427DOPC   O1158812   2.057   9.377   2.157  0.1585 -0.0938 -0.1215
  427DOPC    C158813   2.018   9.490   2.240 -0.3536  0.2467  0.8054
  427DOPC    HA58814   1.919   9.538   2.225  0.8369  2.2228 -1.4028
  427DOPC    HB58815   2.091   9.573   2.231 -0.3245  0.2913  1.3729
  427DOPC    C258816   2.008   9.449   2.391  0.2639  0.0807  0.3482
  427DOPC    HS58817   1.964   9.536   2.445 -1.2328  1.0358 -2.2244
  427DOPC   O2158818   2.143   9.414   2.439  0.1275 -0.1683 -0.9519
  427DOPC   C2158819   2.157   9.420   2.575 -0.0451 -1.1879  0.5212
  427DOPC   O2258820   2.075   9.461   2.657  0.0572  0.3258  0.1186
  427DOPC   C2258821   2.303   9.381   2.609  0.3169  0.4851 -0.0328
  427DOPC   H2R58822   2.376   9.435   2.544 -1.2087  1.9777 -0.5925
  427DOPC   H2S58823   2.312   9.272   2.589  1.1275  0.5485 -0.0297
  427DOPC    C358824   1.912   9.332   2.407 -0.4265 -0.0822  0.5789
  427DOPC    HX58825   1.976   9.256   2.358  1.2618  1.6374  0.0052
  427DOPC    HY58826   1.815   9.345   2.356  0.6465  0.5755 -1.4077
  427DOPC   O3158827   1.896   9.280   2.544  0.2021 -0.3157 -0.3358
  427DOPC   C3158828   1.806   9.350   2.611 -0.5966  0.2098  0.4438
  427DOPC   O3258829   1.739   9.445   2.568 -0.8656  0.0067  0.1645
  427DOPC   C3258830   1.790   9.289   2.746 -0.7000  0.0644 -0.1818
  427DOPC   H2X58831   1.764   9.181   2.738 -1.1847 -0.1210  2.7750
  427DOPC   H2Y58832   1.887   9.300   2.799  0.4920 -0.0503 -2.2120
  427DOPC   C2358833   2.334   9.398   2.762  0.3444 -0.0832  0.0506
  427DOPC   H3R58834   2.430   9.342   2.769 -0.4651 -1.3925  1.1871
  427DOPC   H3S58835   2.267   9.344   2.833  0.0417 -0.3451 -0.4250
  427DOPC   C2458836   2.361   9.545   2.809  0.5729 -0.3462 -0.3128
  427DOPC   H4R58837   2.264   9.599   2.793 -0.3399 -1.6180  0.7533
  427DOPC   H4S58838   2.448   9.589   2.756  0.2506  0.4632 -0.1914
  427DOPC   C2558839   2.386   9.537   2.959 -0.1761  0.1948  0.3682
  427DOPC   H5R58840   2.492   9.505   2.975  0.3962  2.1400  0.6557
  427DOPC   H5S58841   2.323   9.460   3.008 -1.0865 -0.4951 -1.7553
  427DOPC   C2658842   2.364   9.679   3.019  0.3161  0.8736  0.7668
  427DOPC   H6R58843   2.256   9.701   3.007  0.3326  0.0977 -1.1997
  427DOPC   H6S58844   2.410   9.755   2.953 -2.8652  2.2279 -0.0624
  427DOPC   C2758845   2.412   9.677   3.167 -0.0385 -0.5566 -0.3012
  427DOPC   H7R58846   2.381   9.582   3.215 -2.9987  0.2964 -0.3054
  427DOPC   H7S58847   2.359   9.757   3.223 -0.8697 -0.9885 -0.4644
  427DOPC   C2858848   2.564   9.683   3.166  0.0263 -0.5056 -1.0809
  427DOPC   H8R58849   2.597   9.768   3.102 -0.0717  0.2274 -0.1965
  427DOPC   H8S58850   2.598   9.584   3.129 -1.5505 -1.7187  0.5400
  427DOPC   C2958851   2.616   9.718   3.304  0.0223  0.1770 -0.0373
  427DOPC   H9R58852   2.633   9.823   3.331 -0.3422  0.2061  0.0868
  427DOPC  C21058853   2.656   9.626   3.395 -0.1761 -0.1342  0.0709
  427DOPC  H10R58854   2.694   9.660   3.492  1.0366 -0.9802 -0.0882
  427DOPC  C21158855   2.639   9.478   3.389  0.4096  0.5451  0.2126
  427DOPC  H11R58856   2.728   9.424   3.429  0.2204 -0.5530 -0.7703
  427DOPC  H11S58857   2.621   9.438   3.286 -2.6421 -0.6861  1.1263
  427DOPC  C21258858   2.521   9.427   3.468 -0.2050 -0.0753  0.1256
  427DOPC  H12R58859   2.482   9.329   3.433  0.8188 -0.6115  0.4469
  427DOPC  H12S58860   2.436   9.495   3.446  0.3866  0.2291 -1.3027
  427DOPC  C21358861   2.563   9.411   3.612 -0.8278  0.3204 -0.0620
  427DOPC  H13R58862   2.613   9.501   3.654  0.2523 -1.4315  2.7031
  427DOPC  H13S58863   2.636   9.328   3.620  0.4216  1.4754  1.0239
  427DOPC  C21458864   2.449   9.384   3.706 -0.0605 -0.1705  0.6655
  427DOPC  H14R58865   2.427   9.278   3.680  1.2656 -0.1695 -0.5621
  427DOPC  H14S58866   2.361   9.444   3.674 -0.7067 -0.9292  0.9911
  427DOPC  C21558867   2.478   9.401   3.852 -0.0109  0.1469 -0.0219
  427DOPC  H15R58868   2.478   9.510   3.875  0.0236 -0.0483  0.9566
  427DOPC  H15S58869   2.585   9.371   3.856  1.1537  2.8119 -4.2799
  427DOPC  C21658870   2.386   9.333   3.951 -0.1800 -0.8187 -0.3255
  427DOPC  H16R58871   2.360   9.227   3.931  0.1786 -0.9795  0.0470
  427DOPC  H16S58872   2.296   9.399   3.951 -1.7420 -2.7762  1.5077
  427DOPC  C21758873   2.432   9.341   4.093  0.2094  0.0612  0.6536
  427DOPC  H17R58874   2.455   9.446   4.119  0.1821  0.2362 -0.0160
  427DOPC  H17S58875   2.521   9.279   4.117 -0.6341 -0.4986  2.5716
  427DOPC  C21858876   2.327   9.282   4.192 -0.3411  0.2952 -0.3662
  427DOPC  H18R58877   2.224   9.311   4.162 -0.3001  0.3374 -0.4656
  427DOPC  H18S58878   2.345   9.312   4.298 -1.2024 -0.2130 -0.0651
  427DOPC  H18T58879   2.334   9.172   4.186  1.9436  0.3377  0.5460
  427DOPC   C3358880   1.665   9.336   2.831 -0.2906 -0.1636  0.5640
  427DOPC   H3X58881   1.573   9.282   2.796 -0.2220 -2.2034  3.2004
  427DOPC   H3Y58882   1.658   9.447   2.831  4.5341  0.3357  0.1440
  427DOPC   C3458883   1.695   9.295   2.976 -0.3487  0.0060  0.0025
  427DOPC   H4X58884   1.792   9.339   3.006 -0.8260  1.3686 -0.3711
  427DOPC   H4Y58885   1.711   9.185   2.973  1.5592  0.2421  0.3651
  427DOPC   C3558886   1.585   9.333   3.072  0.7396 -0.1403 -0.8596
  427DOPC   H5X58887   1.494   9.281   3.035  0.9946  0.0921 -1.8474
  427DOPC   H5Y58888   1.582   9.444   3.078 -1.0474 -0.2385  0.8645
  427DOPC   C3658889   1.622   9.292   3.221 -0.2883 -0.2839  0.1655
  427DOPC   H6X58890   1.679   9.196   3.227 -0.8870 -0.6153  0.6214
  427DOPC   H6Y58891   1.703   9.351   3.269  0.4180 -1.5507  0.5817
  427DOPC   C3758892   1.504   9.279   3.307  0.8430  0.0558 -0.2835
  427DOPC   H7X58893   1.455   9.377   3.327  2.3158  0.7443  0.1066
  427DOPC   H7Y58894   1.439   9.213   3.245  0.3811  1.3799 -1.2588
  427DOPC   C3858895   1.543   9.221   3.446  0.1777  0.2122  0.6211
  427DOPC   H8X58896   1.596   9.298   3.506  0.7520 -0.4959  1.0307
  427DOPC   H8Y58897   1.612   9.137   3.423  1.0007  1.2399 -0.8090
  427DOPC   C3958898   1.420   9.166   3.519  0.8362  0.2189  0.5689
  427DOPC   H9X58899   1.350   9.116   3.451 -0.8058 -0.0562  2.3502
  427DOPC  C31058900   1.403   9.160   3.652  1.0788 -0.0801 -0.5737
  427DOPC  H10X58901   1.317   9.104   3.692  0.0209  2.5628  1.1090
  427DOPC  C31158902   1.482   9.228   3.765  1.2217 -0.5431 -0.1333
  427DOPC  H11X58903   1.580   9.275   3.741  0.8399  0.9483  1.0845
  427DOPC  H11Y58904   1.486   9.154   3.847 -0.0596 -1.3831 -0.8041
  427DOPC  C31258905   1.401   9.350   3.827  0.3891  0.0802  0.2402
  427DOPC  H12X58906   1.367   9.408   3.739 -1.9809 -1.8472 -0.2419
  427DOPC  H12Y58907   1.456   9.420   3.894  2.9185 -0.1121 -1.5217
  427DOPC  C31358908   1.266   9.305   3.901 -0.3973 -0.7520  0.2190
  427DOPC  H13X58909   1.189   9.270   3.829 -0.6768 -1.9042  1.0439
  427DOPC  H13Y58910   1.284   9.208   3.953  0.0877 -0.7571  0.0469
  427DOPC  C31458911   1.222   9.406   4.002  0.3160 -0.8893  0.4232
  427DOPC  H14X58912   1.148   9.367   4.075 -1.3750  3.4863  1.3487
  427DOPC  H14Y58913   1.299   9.438   4.076 -2.6332 -0.3031  3.5049
  427DOPC  C31558914   1.134   9.523   3.951 -0.2550  0.8737  0.9920
  427DOPC  H15X58915   1.115   9.500   3.844  1.9875  2.2948  0.1977
  427DOPC  H15Y58916   1.183   9.623   3.951  3.7885 -0.9135  0.0392
  427DOPC  C31658917   0.998   9.531   4.029 -0.1920 -0.5583  0.0725
  427DOPC  H16X58918   0.953   9.430   4.043 -2.4218  0.5936  1.9269
  427DOPC  H16Y58919   1.014   9.559   4.136  0.4120 -2.4514  0.5215
  427DOPC  C31758920   0.898   9.630   3.962  0.1556  0.0982  0.1032
  427DOPC  H17X58921   0.884   9.603   3.855 -0.8749  0.6140  0.0993
  427DOPC  H17Y58922   0.799   9.603   4.003 -0.6973 -0.6890 -2.2579
  427DOPC  C31858923   0.931   9.781   3.979 -0.3571  0.6504  0.3133
  427DOPC  H18X58924   0.866   9.848   3.917  0.7139 -0.5954 -2.3185
  427DOPC  H18Y58925   0.939   9.801   4.088 -0.0708  0.0675  0.4010
  427DOPC  H18Z58926   1.032   9.795   3.936  0.9128  0.9414  3.1866
  428DOPC     N58927   1.427   4.266   1.172 -0.0910 -0.1003 -0.2614
  428DOPC   C1258928   1.295   4.220   1.135  0.1571  0.3067  0.1470
  428DOPC  H12A58929   1.294   4.127   1.081  0.8877  1.2826 -1.6647
  428DOPC  H12B58930   1.264   4.299   1.067 -0.6691 -0.9193 -0.9416
  428DOPC   C1358931   1.514   4.275   1.042 -0.0362 -0.1456 -0.8950
  428DOPC  H13A58932   1.461   4.337   0.971  1.4902  0.8064 -1.2399
  428DOPC  H13B58933   1.612   4.316   1.063 -0.1806 -0.1452 -0.2253
  428DOPC  H13C58934   1.526   4.178   0.994 -1.3576 -0.5611 -0.4101
  428DOPC   C1458935   1.488   4.168   1.262  0.3028 -0.3696  0.4495
  428DOPC  H14A58936   1.493   4.065   1.231 -1.4685 -1.0774  2.3089
  428DOPC  H14B58937   1.578   4.203   1.310 -0.6723  0.2240  1.9032
  428DOPC  H14C58938   1.425   4.162   1.349 -0.9600 -0.3923 -0.4386
  428DOPC   C1558939   1.429   4.397   1.232  0.3564 -0.1623  0.6446
  428DOPC  H15A58940   1.388   4.390   1.331  0.5107 -1.6363  0.6248
  428DOPC  H15B58941   1.375   4.470   1.173  0.3817 -0.9179 -0.3471
  428DOPC  H15C58942   1.528   4.439   1.242  0.5482 -0.7162  1.1196
  428DOPC   C1158943   1.183   4.213   1.232  0.3199 -1.1060  0.4132
  428DOPC  H11A58944   1.161   4.312   1.278  0.4320 -0.9854  0.2127
  428DOPC  H11B58945   1.088   4.192   1.179 -1.2674 -1.7152  3.2871
  428DOPC     P58946   1.175   3.961   1.314  0.2377 -0.5400  0.0554
  428DOPC   O1358947   1.198   3.913   1.173  0.3061 -0.3859 -0.7430
  428DOPC   O1458948   1.044   3.931   1.380  0.9125  0.0395 -0.0063
  428DOPC   O1258949   1.210   4.114   1.329 -0.2049  0.5880  0.1101
  428DOPC   O1158950   1.292   3.903   1.405 -0.0358  0.2042 -0.4272
  428DOPC    C158951   1.278   3.791   1.496 -0.6726 -0.4678  0.2909
  428DOPC    HA58952   1.377   3.759   1.535 -0.8039 -0.5185  0.5867
  428DOPC    HB58953   1.241   3.699   1.446  1.6491 -0.5319 -1.5090
  428DOPC    C258954   1.201   3.821   1.630 -0.1169  0.3488  0.0516
  428DOPC    HS58955   1.097   3.804   1.597 -0.0007 -1.0433  0.3529
  428DOPC   O2158956   1.229   3.954   1.668 -0.1489 -0.2261  0.5157
  428DOPC   C2158957   1.137   4.007   1.749  0.0920  0.0992 -0.6532
  428DOPC   O2258958   1.032   3.949   1.777 -0.4984 -0.5095  0.2446
  428DOPC   C2258959   1.195   4.138   1.805 -0.2224 -0.9212 -0.1857
  428DOPC   H2R58960   1.114   4.191   1.861  1.3019  2.6344 -1.0895
  428DOPC   H2S58961   1.239   4.201   1.726  1.2239 -1.8019 -0.1261
  428DOPC    C358962   1.222   3.713   1.734 -0.4844  0.0377 -0.0136
  428DOPC    HX58963   1.332   3.721   1.744 -0.4890  0.8242 -0.5072
  428DOPC    HY58964   1.202   3.607   1.706 -2.6865  0.6213 -0.9331
  428DOPC   O3158965   1.156   3.735   1.861 -0.1147  0.8205  0.3806
  428DOPC   C3158966   1.195   3.648   1.961 -0.5852  0.1734 -0.3745
  428DOPC   O3258967   1.269   3.553   1.942  0.0275  0.3745 -0.7239
  428DOPC   C3258968   1.130   3.690   2.096 -0.3220  0.0283 -0.1599
  428DOPC   H2X58969   1.140   3.801   2.097 -3.9993  0.5232 -1.1869
  428DOPC   H2Y58970   1.023   3.658   2.096  0.2642 -2.1474  1.7672
  428DOPC   C2358971   1.314   4.112   1.898 -0.4073 -0.0491 -0.4819
  428DOPC   H3R58972   1.388   4.194   1.912 -0.3015 -0.1099 -0.6861
  428DOPC   H3S58973   1.378   4.028   1.864 -0.4206 -0.3482  0.2053
  428DOPC   C2458974   1.262   4.073   2.031 -0.2491  0.6279  0.2159
  428DOPC   H4R58975   1.202   3.979   2.025  0.6843 -0.0643  1.2456
  428DOPC   H4S58976   1.201   4.162   2.058 -1.1488  0.7505 -2.0447
  428DOPC   C2558977   1.377   4.041   2.135 -0.5540 -0.7966 -0.5857
  428DOPC   H5R58978   1.431   4.137   2.144 -1.2399 -0.3391 -1.2223
  428DOPC   H5S58979   1.439   3.957   2.097 -0.9652 -1.8376  0.9047
  428DOPC   C2658980   1.334   4.011   2.285  0.0444 -0.3038  0.3402
  428DOPC   H6R58981   1.422   3.999   2.352 -0.4978 -4.9201  0.6008
  428DOPC   H6S58982   1.279   3.914   2.287 -1.1234  0.3089 -0.5425
  428DOPC   C2758983   1.222   4.107   2.336 -0.2769 -0.5748 -0.1712
  428DOPC   H7R58984   1.176   4.066   2.429  0.0876 -2.9118 -0.9721
  428DOPC   H7S58985   1.141   4.106   2.260 -0.6259  0.8240  0.1487
  428DOPC   C2858986   1.280   4.246   2.369 -0.2993  0.2311 -0.7346
  428DOPC   H8R58987   1.196   4.314   2.393 -0.1227 -0.1170  1.0034
  428DOPC   H8S58988   1.337   4.289   2.283  0.7361 -0.2470 -0.3106
  428DOPC   C2958989   1.372   4.249   2.486  0.3346 -1.1131 -0.0884
  428DOPC   H9R58990   1.468   4.197   2.470 -0.6070 -2.5983 -1.1784
  428DOPC  C21058991   1.355   4.288   2.612 -0.0655  0.0394  0.4219
  428DOPC  H10R58992   1.435   4.274   2.685  0.0312  0.7958  0.4659
  428DOPC  C21158993   1.223   4.348   2.663 -0.5312  0.1396  0.3128
  428DOPC  H11R58994   1.136   4.316   2.602  0.3565 -0.4711 -0.6780
  428DOPC  H11S58995   1.223   4.458   2.642 -0.4420  0.0581 -0.1371
  428DOPC  C21258996   1.215   4.323   2.813 -0.8926  0.0617  0.6313
  428DOPC  H12R58997   1.274   4.392   2.876 -1.8208  1.1694  0.3293
  428DOPC  H12S58998   1.244   4.218   2.830  1.9965  0.1319 -2.7874
  428DOPC  C21358999   1.075   4.344   2.854  0.2834 -0.3213 -0.0407
  428DOPC  H13R59000   1.017   4.292   2.774 -0.9471 -0.3805  0.8565
  428DOPC  H13S59001   1.057   4.453   2.857  1.5906 -0.1027  0.5415
  428DOPC  C21459002   1.047   4.295   2.993  0.3423  0.4237 -0.0932
  428DOPC  H14R59003   1.091   4.194   3.003 -0.0684  0.1348 -1.0714
  428DOPC  H14S59004   0.937   4.284   3.000  0.3018  0.7122 -0.2508
  428DOPC  C21559005   1.106   4.384   3.105  0.4361  0.1636  0.2316
  428DOPC  H15R59006   1.049   4.479   3.100  0.8745  0.5204  1.4988
  428DOPC  H15S59007   1.213   4.412   3.090 -0.0146  0.7673 -2.2430
  428DOPC  C21659008   1.095   4.310   3.240 -0.7268 -0.2752  0.4734
  428DOPC  H16R59009   1.140   4.209   3.240  1.2777  0.5763 -0.5797
  428DOPC  H16S59010   0.987   4.283   3.251 -0.5146 -1.1673  0.4503
  428DOPC  C21759011   1.143   4.394   3.365 -0.0855  0.1888 -0.2564
  428DOPC  H17R59012   1.106   4.498   3.354  0.8553  0.4592 -0.9499
  428DOPC  H17S59013   1.253   4.386   3.373 -0.1149  0.3624  0.3843
  428DOPC  C21859014   1.084   4.335   3.501  0.3034 -0.2580  0.6116
  428DOPC  H18R59015   1.105   4.401   3.587 -0.0740 -1.3152  1.5466
  428DOPC  H18S59016   1.116   4.229   3.508 -2.1553 -1.4252 -2.7644
  428DOPC  H18T59017   0.973   4.339   3.495  0.2250  0.1918  2.0585
  428DOPC   C3359018   1.212   3.633   2.220  0.0179  0.2558 -0.4112
  428DOPC   H3X59019   1.307   3.688   2.233 -1.1863  1.8947  2.7204
  428DOPC   H3Y59020   1.224   3.524   2.207  3.1927  0.2492  1.4504
  428DOPC   C3459021   1.125   3.657   2.349 -0.1656 -0.0286 -0.1865
  428DOPC   H4X59022   1.063   3.568   2.373  1.3168 -1.2099 -0.5756
  428DOPC   H4Y59023   1.060   3.745   2.335  1.8478  2.1333  2.8857
  428DOPC   C3559024   1.220   3.695   2.470 -1.0399  0.4628  0.3734
  428DOPC   H5X59025   1.279   3.787   2.452 -0.5232  0.3416  1.3984
  428DOPC   H5Y59026   1.290   3.610   2.485  2.0850  2.7206 -0.5247
  428DOPC   C3659027   1.144   3.713   2.606 -0.1905 -0.9655 -0.6721
  428DOPC   H6X59028   1.211   3.763   2.679  1.3666 -0.4860 -2.3741
  428DOPC   H6Y59029   1.052   3.766   2.574 -0.4534 -2.0781 -1.8349
  428DOPC   C3759030   1.093   3.578   2.674 -0.2510 -0.1650 -0.1574
  428DOPC   H7X59031   0.995   3.563   2.623  0.4794 -1.3133 -1.2838
  428DOPC   H7Y59032   1.173   3.503   2.654 -0.4169 -0.8880  1.7116
  428DOPC   C3859033   1.088   3.578   2.829 -0.1125 -0.4293 -0.4288
  428DOPC   H8X59034   1.183   3.614   2.874 -0.3449 -0.1269 -0.1749
  428DOPC   H8Y59035   1.052   3.476   2.858 -1.7831  0.7191  1.8413
  428DOPC   C3959036   0.976   3.675   2.863  0.1995 -0.0743 -0.1958
  428DOPC   H9X59037   0.916   3.711   2.779  0.5384 -0.6763 -0.6999
  428DOPC  C31059038   0.948   3.717   2.988  0.2113  0.4874 -1.1193
  428DOPC  H10X59039   0.859   3.779   3.004  0.4783  0.4727  0.5210
  428DOPC  C31159040   1.025   3.676   3.113 -0.2320 -0.2409 -0.1924
  428DOPC  H11X59041   1.109   3.606   3.092  0.3976  0.6826 -0.8042
  428DOPC  H11Y59042   0.971   3.622   3.194 -0.5584  1.1682  0.5533
  428DOPC  C31259043   1.100   3.793   3.186 -0.3394 -0.3384  0.1775
  428DOPC  H12X59044   1.140   3.764   3.285 -0.2615 -1.1260 -0.0795
  428DOPC  H12Y59045   1.033   3.879   3.208  0.2013 -0.4454  2.5268
  428DOPC  C31359046   1.214   3.853   3.098 -0.2725 -0.0887  0.7301
  428DOPC  H13X59047   1.276   3.771   3.056 -0.9376 -0.5652  0.6543
  428DOPC  H13Y59048   1.157   3.898   3.015  1.1723 -3.0960 -2.1268
  428DOPC  C31459049   1.303   3.950   3.174 -0.7995 -0.1012 -0.3435
  428DOPC  H14X59050   1.239   4.021   3.231  2.4524  0.8727  2.4444
  428DOPC  H14Y59051   1.353   3.888   3.251 -0.2213  1.3108  0.4696
  428DOPC  C31559052   1.397   4.040   3.091  0.1019 -0.4694 -0.1120
  428DOPC  H15X59053   1.333   4.094   3.018  0.8386  1.0414  0.3061
  428DOPC  H15Y59054   1.466   3.974   3.035 -0.2740 -0.5144 -0.5346
  428DOPC  C31659055   1.486   4.145   3.167  0.1259  0.1497 -0.7618
  428DOPC  H16X59056   1.423   4.215   3.226  1.0752  0.4889 -0.1356
  428DOPC  H16Y59057   1.535   4.088   3.248 -2.5305 -2.3866 -0.7824
  428DOPC  C31759058   1.587   4.228   3.088  0.8489  0.3195  0.2529
  428DOPC  H17X59059   1.629   4.294   3.166 -1.3770  1.2110  0.7708
  428DOPC  H17Y59060   1.675   4.163   3.066  0.2812 -0.5256  0.4400
  428DOPC  C31859061   1.532   4.320   2.985 -0.1794 -1.1597  0.0276
  428DOPC  H18X59062   1.484   4.271   2.898 -1.2693 -0.9814  0.5060
  428DOPC  H18Y59063   1.458   4.385   3.035  0.1100 -1.5720  1.0206
  428DOPC  H18Z59064   1.610   4.383   2.937 -1.8094 -0.7735 -2.2511
  429DOPC     N59065  10.549   3.998   1.388 -0.0335 -0.2921  0.5742
  429DOPC   C1259066  10.514   4.068   1.514 -0.4181  0.0314 -0.4298
  429DOPC  H12A59067  10.582   4.147   1.543 -1.6597  0.6098  1.0708
  429DOPC  H12B59068  10.521   3.994   1.592  1.6124  1.6907  1.0853
  429DOPC   C1359069  10.446   3.902   1.352 -0.7035  0.0470  0.2144
  429DOPC  H13A59070  10.457   3.813   1.412  0.4752 -0.7577 -1.1225
  429DOPC  H13B59071  10.347   3.944   1.364 -1.5159 -1.4743 -0.9015
  429DOPC  H13C59072  10.451   3.878   1.247  0.3874 -1.7137  0.6211
  429DOPC   C1459073  10.684   3.939   1.412 -0.3273 -0.5670 -1.2011
  429DOPC  H14A59074  10.731   3.915   1.318  1.4653 -2.0296 -0.0103
  429DOPC  H14B59075  10.747   4.006   1.468 -3.4058 -0.9863  3.2588
  429DOPC  H14C59076  10.668   3.847   1.466 -1.7906 -0.3741 -1.2654
  429DOPC   C1559077  10.570   4.095   1.280 -0.3488  0.2359  0.2055
  429DOPC  H15A59078  10.479   4.140   1.241 -0.5549  0.2867  0.7386
  429DOPC  H15B59079  10.615   4.043   1.197  1.8669 -0.9285  2.0498
  429DOPC  H15C59080  10.634   4.178   1.303 -2.3323  1.5353  1.3554
  429DOPC   C1159081  10.372   4.134   1.530 -0.4607 -0.3375 -0.4570
  429DOPC  H11A59082  10.295   4.057   1.507 -0.5107 -0.5939  0.5076
  429DOPC  H11B59083  10.364   4.172   1.634 -0.5243  0.6687 -0.8257
  429DOPC     P59084  10.206   4.305   1.436 -0.2442  0.1680  0.3008
  429DOPC   O1359085  10.112   4.197   1.434  0.0117 -0.0378 -0.0869
  429DOPC   O1459086  10.191   4.400   1.324 -0.0932  0.5444 -0.4138
  429DOPC   O1259087  10.356   4.245   1.441 -0.4222 -0.6535  0.3095
  429DOPC   O1159088  10.177   4.384   1.572 -0.6772 -0.6455 -0.5608
  429DOPC    C159089  10.285   4.465   1.620 -0.5853 -0.8157  0.0852
  429DOPC    HA59090  10.306   4.550   1.553 -0.0357  2.2857  3.8226
  429DOPC    HB59091  10.383   4.413   1.626  0.5053  1.1132 -0.5523
  429DOPC    C259092  10.248   4.516   1.760  0.3574  0.2371 -0.3579
  429DOPC    HS59093  10.332   4.583   1.789  0.6576 -0.8951  1.6545
  429DOPC   O2159094  10.239   4.413   1.854 -0.0484  0.2633  0.2340
  429DOPC   C2159095  10.357   4.383   1.923  0.5398  0.4445  0.3478
  429DOPC   O2259096  10.459   4.438   1.887 -0.4005 -0.2014 -0.1625
  429DOPC   C2259097  10.326   4.281   2.030 -0.9825 -0.2493 -0.9711
  429DOPC   H2R59098  10.295   4.183   1.988  0.8832 -2.2738  1.9288
  429DOPC   H2S59099  10.239   4.316   2.090 -0.1232  0.0351  0.1345
  429DOPC    C359100  10.120   4.606   1.761  0.4043  0.3410 -0.0859
  429DOPC    HX59101  10.029   4.542   1.754  1.2973 -1.0287  0.5293
  429DOPC    HY59102  10.115   4.678   1.676 -1.3840  0.8634  0.4083
  429DOPC   O3159103  10.126   4.685   1.878  0.2845  0.4985 -0.5454
  429DOPC   C3159104  10.084   4.634   1.993 -0.3864 -0.0987  0.5781
  429DOPC   O3259105  10.036   4.522   2.008  0.3808 -0.2741  0.1816
  429DOPC   C3259106  10.120   4.737   2.096  0.3636  0.0114  0.1931
  429DOPC   H2X59107  10.049   4.822   2.089  0.9314  0.4082 -0.9615
  429DOPC   H2Y59108  10.097   4.693   2.195 -1.3344  1.3876  0.4459
  429DOPC   C2359109  10.444   4.235   2.122  0.3515  0.0640  0.3259
  429DOPC   H3R59110  10.527   4.192   2.063  0.7032  0.7851  0.2849
  429DOPC   H3S59111  10.402   4.151   2.181  0.5671  0.4891  1.1065
  429DOPC   C2459112  10.495   4.358   2.202  0.2955  0.3838  0.5322
  429DOPC   H4R59113  10.556   4.421   2.133  0.6512  0.3151  0.7820
  429DOPC   H4S59114  10.562   4.308   2.276 -1.5553  0.1362  2.1077
  429DOPC   C2559115  10.393   4.432   2.284  0.3114 -0.2639 -0.2181
  429DOPC   H5R59116  10.314   4.362   2.318 -0.9418  0.5050 -1.4300
  429DOPC   H5S59117  10.333   4.499   2.218 -1.3437 -2.5306 -1.1417
  429DOPC   C2659118  10.458   4.499   2.409 -0.2541 -0.1820  0.1409
  429DOPC   H6R59119  10.537   4.570   2.376  2.0161 -2.4194  0.4205
  429DOPC   H6S59120  10.513   4.412   2.450 -1.5080 -0.5539  1.0735
  429DOPC   C2759121  10.353   4.554   2.510  0.4384  0.5021  0.2973
  429DOPC   H7R59122  10.316   4.455   2.546 -0.3585  0.6276 -0.1520
  429DOPC   H7S59123  10.269   4.607   2.461  0.8179  1.0771  0.2546
  429DOPC   C2859124  10.409   4.638   2.625  0.5014 -0.1873 -0.7119
  429DOPC   H8R59125  10.321   4.674   2.683 -1.5088 -0.4871 -3.3982
  429DOPC   H8S59126  10.469   4.724   2.587 -0.8807  1.4231  0.5820
  429DOPC   C2959127  10.509   4.568   2.707  0.0786 -1.0420 -0.0797
  429DOPC   H9R59128  10.536   4.474   2.656 -1.1210 -1.9332  0.8434
  429DOPC  C21059129  10.560   4.588   2.830 -0.8462 -0.4989  0.2267
  429DOPC  H10R59130  10.646   4.528   2.865  0.4623  1.0234 -0.2496
  429DOPC  C21159131  10.533   4.700   2.927 -0.1857 -0.0806  0.8571
  429DOPC  H11R59132  10.437   4.739   2.887 -0.3234 -0.8591  0.4009
  429DOPC  H11S59133  10.602   4.787   2.928 -1.7089  1.4034 -2.7033
  429DOPC  C21259134  10.500   4.642   3.067 -0.0777  0.0077 -0.6289
  429DOPC  H12R59135  10.427   4.559   3.055  0.0421 -1.0559  4.1013
  429DOPC  H12S59136  10.445   4.720   3.124  2.3442  1.2743  0.1248
  429DOPC  C21359137  10.617   4.616   3.156 -0.3975  0.6593  0.1715
  429DOPC  H13R59138  10.702   4.685   3.144  1.2182 -0.8808  2.0098
  429DOPC  H13S59139  10.664   4.518   3.133 -0.8355  0.4778  0.0285
  429DOPC  C21459140  10.581   4.622   3.308 -0.2705 -0.0802  0.7723
  429DOPC  H14R59141  10.495   4.553   3.323 -1.1944  0.9283  0.2571
  429DOPC  H14S59142  10.539   4.722   3.332 -0.6327  0.0978 -0.5005
  429DOPC  C21559143  10.694   4.576   3.404  0.9420  0.1894  0.0531
  429DOPC  H15R59144  10.785   4.638   3.394  0.6346  0.6279 -0.0630
  429DOPC  H15S59145  10.716   4.473   3.369 -1.5083 -0.3361 -0.1406
  429DOPC  C21659146  10.650   4.562   3.546  0.7622  0.9034 -0.1645
  429DOPC  H16R59147  10.576   4.483   3.569  1.1552  1.1422  2.1679
  429DOPC  H16S59148  10.611   4.659   3.584 -0.1159 -0.5632  2.9665
  429DOPC  C21759149  10.760   4.521   3.639  0.1957  1.0684 -0.0765
  429DOPC  H17R59150  10.788   4.415   3.624 -0.4076  0.9070 -0.0884
  429DOPC  H17S59151  10.728   4.532   3.745 -0.5293 -1.4131  0.0178
  429DOPC  C21859152  10.876   4.625   3.636 -0.0312 -0.2774 -0.5275
  429DOPC  H18R59153  10.941   4.611   3.546  0.3048 -0.3151 -0.2804
  429DOPC  H18S59154  10.946   4.628   3.722  0.0355  1.2887 -0.6149
  429DOPC  H18T59155  10.838   4.729   3.627 -0.4934 -0.4166 -0.2044
  429DOPC   C3359156  10.254   4.793   2.091  0.5308 -0.3682  0.6907
  429DOPC   H3X59157  10.269   4.861   2.004  0.2794 -0.3748  0.6422
  429DOPC   H3Y59158  10.330   4.714   2.073  0.0396 -0.8542  0.7374
  429DOPC   C3459159  10.302   4.863   2.222  0.4486  0.2937  0.7322
  429DOPC   H4X59160  10.297   4.797   2.312  0.1209  3.2509  3.0312
  429DOPC   H4Y59161  10.242   4.955   2.241  0.2272  0.3404 -0.1640
  429DOPC   C3559162  10.450   4.903   2.207 -0.2717 -0.3835 -0.0609
  429DOPC   H5X59163  10.459   4.987   2.135 -1.9963  1.0369  1.3027
  429DOPC   H5Y59164  10.509   4.824   2.155 -0.8700 -0.6390 -0.3665
  429DOPC   C3659165  10.506   4.939   2.345 -0.3489 -0.1806 -0.0461
  429DOPC   H6X59166  10.469   5.042   2.365 -2.0284 -0.8563  0.5043
  429DOPC   H6Y59167  10.458   4.879   2.426 -1.2449 -1.0425 -1.1842
  429DOPC   C3759168  10.660   4.934   2.353 -0.0920  0.4318 -0.1141
  429DOPC   H7X59169  10.680   4.830   2.319  2.1954  0.7039  0.2380
  429DOPC   H7Y59170  10.711   5.004   2.284  2.5478 -0.3177  0.9323
  429DOPC   C3859171  10.706   4.967   2.491 -0.8743  0.0354 -0.6710
  429DOPC   H8X59172  10.813   4.942   2.504 -0.9270  0.4170  0.6563
  429DOPC   H8Y59173  10.650   4.901   2.561 -2.1608  1.0764 -0.6608
  429DOPC   C3959174  10.697   5.110   2.543  0.3151 -0.4186 -0.2939
  429DOPC   H9X59175  10.731   5.191   2.477 -2.7086  1.4374  0.2458
  429DOPC  C31059176  10.661   5.154   2.666 -0.0241  0.5396  0.6050
  429DOPC  H10X59177  10.662   5.262   2.687  0.3321  0.6991 -0.2030
  429DOPC  C31159178  10.626   5.073   2.786  0.2983  0.3622 -0.3901
  429DOPC  H11X59179  10.687   5.104   2.873  0.0399 -0.7877  0.2304
  429DOPC  H11Y59180  10.637   4.963   2.770  2.0317  0.4994 -0.2343
  429DOPC  C31259181  10.477   5.084   2.827 -0.2653 -0.1116 -0.7828
  429DOPC  H12X59182  10.460   5.193   2.827 -0.9098 -0.1980 -0.0382
  429DOPC  H12Y59183  10.458   5.044   2.929 -0.0106 -1.9387 -1.4084
  429DOPC  C31359184  10.373   5.027   2.728 -0.1686 -0.3867 -1.2726
  429DOPC  H13X59185  10.385   5.066   2.625 -0.9174  2.3037 -0.4294
  429DOPC  H13Y59186  10.402   4.920   2.727 -0.1096 -0.3728 -1.0146
  429DOPC  C31459187  10.222   5.041   2.758  0.2469  0.3065 -0.2592
  429DOPC  H14X59188  10.201   5.002   2.859 -0.6704 -1.2364 -1.0026
  429DOPC  H14Y59189  10.193   5.149   2.763  0.1703  0.4426 -2.4556
  429DOPC  C31559190  10.139   4.957   2.661 -0.1601  0.1632  0.0702
  429DOPC  H15X59191  10.043   4.924   2.706  0.4868  0.0487  1.4030
  429DOPC  H15Y59192  10.192   4.861   2.646 -0.6409  0.0553 -1.0056
  429DOPC  C31659193  10.109   5.026   2.534 -0.8394 -0.4969 -0.3462
  429DOPC  H16X59194  10.041   5.112   2.550  0.3400  0.4744 -0.4418
  429DOPC  H16Y59195  10.197   5.064   2.478 -1.1067 -1.1826 -1.2501
  429DOPC  C31759196  10.013   4.933   2.452  0.0818  0.3249 -0.0864
  429DOPC  H17X59197  10.055   4.834   2.426 -0.1349  0.2315 -0.0817
  429DOPC  H17Y59198   9.927   4.918   2.520  0.6379  0.5060  0.6720
  429DOPC  C31859199   9.968   5.014   2.329 -0.0649  0.3766 -0.4615
  429DOPC  H18X59200  10.053   5.046   2.265 -0.3798  4.5753  0.9411
  429DOPC  H18Y59201   9.912   4.940   2.268 -0.4846 -1.4236  1.9569
  429DOPC  H18Z59202   9.900   5.098   2.352  0.6042  1.2111 -1.4538
  430DOPC     N59203   3.314   8.926   1.938 -0.2379 -0.0555 -0.0101
  430DOPC   C1259204   3.410   8.957   2.054  0.1410  0.0353 -1.0755
  430DOPC  H12A59205   3.508   8.934   2.015 -1.1126 -1.0329 -3.9046
  430DOPC  H12B59206   3.387   8.881   2.128  0.5758  0.9243 -0.0064
  430DOPC   C1359207   3.168   8.944   1.960 -0.0663 -0.5142  0.1092
  430DOPC  H13A59208   3.135   9.046   1.976  3.4999  0.5115  1.9054
  430DOPC  H13B59209   3.111   8.914   1.873 -1.5058  4.2240 -0.9184
  430DOPC  H13C59210   3.125   8.895   2.046 -0.8177  0.5557  0.3700
  430DOPC   C1459211   3.343   8.795   1.886  0.1028  0.0336  0.5109
  430DOPC  H14A59212   3.442   8.785   1.844  1.2306  0.1304  2.9991
  430DOPC  H14B59213   3.334   8.720   1.963  1.0693 -0.5520  0.0810
  430DOPC  H14C59214   3.264   8.766   1.817 -1.7332 -1.3130  3.0315
  430DOPC   C1559215   3.348   9.026   1.834 -0.6223 -0.2469 -0.4155
  430DOPC  H15A59216   3.332   9.122   1.882 -0.6760 -0.4234 -0.0787
  430DOPC  H15B59217   3.295   9.021   1.740  1.6853 -0.3524 -1.7906
  430DOPC  H15C59218   3.455   9.021   1.818 -0.5923 -0.1201 -0.2605
  430DOPC   C1159219   3.408   9.102   2.119  0.6041  0.8234  0.5214
  430DOPC  H11A59220   3.301   9.109   2.149  0.8139 -2.1849  2.4500
  430DOPC  H11B59221   3.474   9.101   2.209  0.8952 -1.6070  0.3612
  430DOPC     P59222   3.606   9.202   1.978  0.0311  0.6737 -0.2069
  430DOPC   O1359223   3.636   9.316   1.891 -0.3078  0.3579 -0.3034
  430DOPC   O1459224   3.644   9.069   1.926 -0.4589  0.0950 -0.0336
  430DOPC   O1259225   3.454   9.197   2.018  0.5087 -0.2678 -0.0083
  430DOPC   O1159226   3.680   9.214   2.116  0.3036  0.0328 -0.1160
  430DOPC    C159227   3.696   9.342   2.179 -0.3555 -0.5316  0.0240
  430DOPC    HA59228   3.602   9.400   2.167 -0.3046 -0.6466 -1.0424
  430DOPC    HB59229   3.776   9.405   2.134  0.8924 -0.3067  2.4047
  430DOPC    C259230   3.744   9.333   2.326 -0.3162 -0.1307  0.4365
  430DOPC    HS59231   3.850   9.300   2.324 -0.8469 -1.9724 -0.9871
  430DOPC   O2159232   3.665   9.234   2.392  0.3933  0.4651  0.2581
  430DOPC   C2159233   3.701   9.113   2.388  0.4560  0.4512  0.5337
  430DOPC   O2259234   3.789   9.061   2.319  0.1918 -0.3392 -0.1812
  430DOPC   C2259235   3.595   9.029   2.455 -0.2272  0.3692 -0.8102
  430DOPC   H2R59236   3.551   8.972   2.370  0.2727  1.2889 -1.7083
  430DOPC   H2S59237   3.519   9.097   2.498 -0.5468  0.2410 -1.1700
  430DOPC    C359238   3.726   9.475   2.390  0.0440  0.0756  0.5446
  430DOPC    HX59239   3.618   9.489   2.369  0.3395 -0.5378 -1.6465
  430DOPC    HY59240   3.795   9.546   2.340  3.2168 -1.0755  2.8778
  430DOPC   O3159241   3.750   9.491   2.530  0.2080 -0.6137  0.2235
  430DOPC   C3159242   3.875   9.474   2.574 -1.5329  0.2549  0.0072
  430DOPC   O3259243   3.969   9.445   2.500  0.0836  0.1744 -0.7508
  430DOPC   C3259244   3.875   9.476   2.726  0.0079  0.1268  0.1993
  430DOPC   H2X59245   3.914   9.575   2.757  1.5449 -0.4592  0.2239
  430DOPC   H2Y59246   3.776   9.447   2.767 -0.6756 -0.1047 -1.5496
  430DOPC   C2359247   3.649   8.929   2.560 -0.0800 -0.1675  1.0147
  430DOPC   H3R59248   3.717   8.869   2.495  0.7263 -0.2313  1.8882
  430DOPC   H3S59249   3.565   8.870   2.603  0.1988 -0.2599  1.4391
  430DOPC   C2459250   3.728   9.002   2.667 -1.1500 -0.1103 -0.0144
  430DOPC   H4R59251   3.806   9.071   2.630  1.3050 -2.6749  0.0042
  430DOPC   H4S59252   3.776   8.911   2.710 -0.1808 -0.4122 -1.6482
  430DOPC   C2559253   3.634   9.055   2.774  0.1229 -0.2678  0.2479
  430DOPC   H5R59254   3.554   8.982   2.798 -0.0745 -0.3157 -0.5202
  430DOPC   H5S59255   3.588   9.151   2.744  0.9887  0.2503  0.5566
  430DOPC   C2659256   3.704   9.069   2.912  0.3134 -0.2799 -0.1613
  430DOPC   H6R59257   3.780   9.149   2.897  0.0349  0.1104  0.4398
  430DOPC   H6S59258   3.759   8.981   2.951 -0.4134 -0.5393  0.3121
  430DOPC   C2759259   3.607   9.118   3.031 -0.5104  0.1375  0.6092
  430DOPC   H7R59260   3.568   9.220   3.011 -0.9124 -0.0535  0.4105
  430DOPC   H7S59261   3.674   9.133   3.119 -0.2053  1.6332  0.1493
  430DOPC   C2859262   3.494   9.020   3.067  0.1464  0.2045  0.8279
  430DOPC   H8R59263   3.541   8.924   3.099 -3.0835 -2.1577 -0.8355
  430DOPC   H8S59264   3.439   8.989   2.975  1.0884 -0.3996  0.4529
  430DOPC   C2959265   3.403   9.083   3.169  0.3346  0.1047  0.2705
  430DOPC   H9R59266   3.352   9.172   3.128 -2.4008 -0.9233  1.2009
  430DOPC  C21059267   3.366   9.033   3.286  0.5739 -0.3893  0.3947
  430DOPC  H10R59268   3.300   9.091   3.353  1.0306 -1.7620  2.1121
  430DOPC  C21159269   3.420   8.902   3.342 -0.2085  0.6840  0.1536
  430DOPC  H11R59270   3.525   8.883   3.311 -0.3870 -1.4604  0.6748
  430DOPC  H11S59271   3.347   8.821   3.316  0.4385  0.4260 -0.8952
  430DOPC  C21259272   3.432   8.910   3.497 -0.0090  0.7559 -0.2741
  430DOPC  H12R59273   3.502   8.995   3.512  2.2689 -1.0269 -0.4251
  430DOPC  H12S59274   3.471   8.810   3.523  0.3135  0.6410 -1.1887
  430DOPC  C21359275   3.301   8.931   3.569  0.1484  0.1569  0.0176
  430DOPC  H13R59276   3.238   8.839   3.559 -2.2870  1.4844  1.9950
  430DOPC  H13S59277   3.241   9.020   3.541 -0.5546  0.0180  1.0510
  430DOPC  C21459278   3.325   8.932   3.727 -0.7380 -0.2153  0.8049
  430DOPC  H14R59279   3.391   9.019   3.748 -3.4947  2.0957  0.6307
  430DOPC  H14S59280   3.379   8.838   3.746  2.4593  0.5994 -2.9053
  430DOPC  C21559281   3.202   8.957   3.814  0.5640 -0.4012 -0.1484
  430DOPC  H15R59282   3.226   8.925   3.917 -0.6738 -0.1813  0.2203
  430DOPC  H15S59283   3.117   8.902   3.770  2.2550 -1.8599 -1.7846
  430DOPC  C21659284   3.147   9.099   3.840  0.8367  0.0370  0.6614
  430DOPC  H16R59285   3.214   9.158   3.906 -0.3006  0.3745  1.5477
  430DOPC  H16S59286   3.053   9.102   3.898  0.0118  0.7841 -0.6413
  430DOPC  C21759287   3.127   9.184   3.717 -0.4257 -0.6215 -0.6344
  430DOPC  H17R59288   3.079   9.113   3.646 -2.0219 -1.3539  1.0937
  430DOPC  H17S59289   3.218   9.220   3.665  1.1488 -2.7906  0.4701
  430DOPC  C21859290   3.052   9.314   3.746  0.1422  0.2630 -0.2689
  430DOPC  H18R59291   2.956   9.299   3.800  1.1287 -0.3120  1.3871
  430DOPC  H18S59292   3.026   9.368   3.652 -1.5957  1.6623  0.9342
  430DOPC  H18T59293   3.118   9.383   3.802  2.1429 -1.2663 -0.6254
  430DOPC   C3359294   3.975   9.374   2.769 -0.0797  0.5426 -0.2666
  430DOPC   H3X59295   4.080   9.389   2.735  0.2732 -1.2026 -0.0534
  430DOPC   H3Y59296   3.939   9.274   2.735  0.0894  0.3881  0.0055
  430DOPC   C3459297   3.963   9.372   2.926 -0.0471 -0.2308 -0.2659
  430DOPC   H4X59298   3.855   9.353   2.942  0.1623 -0.9315  0.3953
  430DOPC   H4Y59299   3.994   9.470   2.968 -1.4565  0.1879 -0.1646
  430DOPC   C3559300   4.023   9.255   3.008  0.0757  0.2320 -0.2202
  430DOPC   H5X59301   4.132   9.259   2.989  0.4910 -1.0458  1.5638
  430DOPC   H5Y59302   3.984   9.162   2.961  0.2109 -0.6884  1.4019
  430DOPC   C3659303   4.003   9.255   3.154 -0.6655 -0.4310  0.1793
  430DOPC   H6X59304   3.900   9.293   3.172 -0.0892  0.4417  1.8239
  430DOPC   H6Y59305   4.000   9.152   3.196 -0.9748 -0.6949 -0.4885
  430DOPC   C3759306   4.108   9.341   3.232  0.5993  0.3940  0.7257
  430DOPC   H7X59307   4.200   9.282   3.247  0.3902  0.0454  0.6344
  430DOPC   H7Y59308   4.131   9.425   3.163 -2.4655  0.5634 -0.2494
  430DOPC   C3859309   4.049   9.394   3.362 -0.2765  0.6488 -0.3023
  430DOPC   H8X59310   3.962   9.454   3.330 -1.6553 -2.1761 -2.1404
  430DOPC   H8Y59311   4.135   9.459   3.391 -1.0932  2.5376 -1.8813
  430DOPC   C3959312   4.020   9.287   3.469 -0.2895  0.2672  0.5312
  430DOPC   H9X59313   4.110   9.232   3.500 -0.9533  0.0709  2.1979
  430DOPC  C31059314   3.901   9.251   3.518  0.3652 -0.6688  0.3260
  430DOPC  H10X59315   3.901   9.197   3.614  1.4131 -0.9257  0.1878
  430DOPC  C31159316   3.767   9.307   3.469 -0.1333  0.5794  0.1445
  430DOPC  H11X59317   3.700   9.229   3.427 -0.2522 -0.0023  1.3673
  430DOPC  H11Y59318   3.768   9.398   3.405 -1.3739  0.2781 -0.3279
  430DOPC  C31259319   3.682   9.358   3.586 -0.2641 -0.4643  0.1654
  430DOPC  H12X59320   3.608   9.438   3.565  1.7373  1.4023 -0.1434
  430DOPC  H12Y59321   3.765   9.402   3.645  0.8229 -3.0076  0.6793
  430DOPC  C31359322   3.597   9.251   3.666  0.1730 -0.1572  0.4877
  430DOPC  H13X59323   3.520   9.216   3.596  1.8568 -2.6008 -0.2652
  430DOPC  H13Y59324   3.665   9.166   3.689 -1.8956 -2.2648 -0.7867
  430DOPC  C31459325   3.540   9.302   3.796  0.0842 -0.3296 -0.5025
  430DOPC  H14X59326   3.483   9.217   3.839 -0.3982 -0.6214 -1.6869
  430DOPC  H14Y59327   3.627   9.337   3.856 -0.3254 -0.7526  0.3674
  430DOPC  C31559328   3.438   9.422   3.783 -0.6085 -0.3141  0.1778
  430DOPC  H15X59329   3.357   9.383   3.718 -0.5997 -0.3001  0.1587
  430DOPC  H15Y59330   3.478   9.515   3.738 -2.0204  1.3921  2.2875
  430DOPC  C31659331   3.391   9.466   3.916 -1.1084  0.5360  0.8838
  430DOPC  H16X59332   3.327   9.386   3.959 -0.1781 -2.0657 -2.1707
  430DOPC  H16Y59333   3.473   9.492   3.987 -2.6001  1.1794  2.4388
  430DOPC  C31759334   3.315   9.592   3.905  0.4440 -0.2149  0.5666
  430DOPC  H17X59335   3.375   9.672   3.856  3.1278 -1.6587  1.3127
  430DOPC  H17Y59336   3.236   9.581   3.828  1.0570  0.3312 -0.1445
  430DOPC  C31859337   3.245   9.640   4.031 -0.4455 -0.3845 -0.7262
  430DOPC  H18X59338   3.329   9.631   4.103  0.4058 -1.5727 -1.8006
  430DOPC  H18Y59339   3.208   9.744   4.021 -0.9463 -0.0296  3.2092
  430DOPC  H18Z59340   3.170   9.565   4.065 -0.9954  0.6630  0.4547
  431DOPC     N59341  12.070   7.694   1.833 -0.6588  0.6296 -0.4194
  431DOPC   C1259342  12.080   7.563   1.916  0.0927  0.7596 -0.0998
  431DOPC  H12A59343  12.079   7.480   1.848 -0.3810  3.2501 -3.3827
  431DOPC  H12B59344  12.004   7.558   1.993  0.9321 -0.1765  0.6911
  431DOPC   C1359345  12.081   7.805   1.931 -0.7974 -0.7396  0.0267
  431DOPC  H13A59346  12.098   7.898   1.880  0.9691 -0.3183  1.2945
  431DOPC  H13B59347  11.987   7.817   1.983 -0.1686  0.1864  0.9851
  431DOPC  H13C59348  12.158   7.795   2.007 -1.4431 -0.3012  0.7561
  431DOPC   C1459349  11.940   7.693   1.761 -0.4083  0.1058  0.2533
  431DOPC  H14A59350  11.869   7.671   1.839  1.3934 -2.9834  1.2062
  431DOPC  H14B59351  11.923   7.779   1.698 -1.2357  0.7418  1.3147
  431DOPC  H14C59352  11.931   7.607   1.696 -0.7728 -0.8903  1.5888
  431DOPC   C1559353  12.182   7.707   1.741 -0.1360 -0.6950  0.8543
  431DOPC  H15A59354  12.265   7.757   1.789  1.1681 -0.2837 -1.6802
  431DOPC  H15B59355  12.146   7.770   1.661 -2.3485  1.0117  3.0262
  431DOPC  H15C59356  12.220   7.613   1.703 -0.7257 -0.0204 -1.5934
  431DOPC   C1159357  12.218   7.536   1.988  0.1054  0.1563 -1.3007
  431DOPC  H11A59358  12.221   7.429   2.017 -0.4294  0.7470  1.1313
  431DOPC  H11B59359  12.296   7.561   1.913  2.0654 -0.0087  0.5790
  431DOPC     P59360  12.154   7.577   2.237 -0.1369  0.2136 -0.0492
  431DOPC   O1359361  12.161   7.431   2.248  0.1886  0.2730 -0.5992
  431DOPC   O1459362  12.023   7.637   2.234  0.2070 -0.0981  0.0209
  431DOPC   O1259363  12.226   7.622   2.109  0.1041  0.0961 -0.6782
  431DOPC   O1159364  12.247   7.658   2.345 -0.2292 -0.0683 -0.1288
  431DOPC    C159365  12.390   7.672   2.331 -0.0034  0.3536  0.0513
  431DOPC    HA59366  12.407   7.782   2.327 -2.1575  0.7393  0.5870
  431DOPC    HB59367  12.438   7.623   2.244  0.8654 -1.9320  1.7074
  431DOPC    C259368  12.470   7.610   2.458  0.3855  0.1324 -0.2598
  431DOPC    HS59369  12.574   7.644   2.444  0.7364 -1.1500 -0.9517
  431DOPC   O2159370  12.465   7.465   2.469  0.1411 -0.1752  0.2879
  431DOPC   C2159371  12.560   7.388   2.421 -0.0303  0.2964 -0.0498
  431DOPC   O2259372  12.653   7.426   2.350 -0.6439  0.6600  0.4443
  431DOPC   C2259373  12.553   7.249   2.478  0.8524 -0.1822 -0.2038
  431DOPC   H2R59374  12.560   7.175   2.396  2.4825  0.2631 -0.5104
  431DOPC   H2S59375  12.460   7.236   2.538 -0.1849  0.7993 -1.5520
  431DOPC    C359376  12.418   7.662   2.589  0.3464  0.1024  0.4981
  431DOPC    HX59377  12.318   7.627   2.623  0.1347  2.0234  1.9789
  431DOPC    HY59378  12.400   7.770   2.574 -0.3998 -0.0396  0.2787
  431DOPC   O3159379  12.508   7.637   2.697 -0.2633 -0.2358 -0.3547
  431DOPC   C3159380  12.600   7.731   2.711  0.4974 -0.1588  0.0903
  431DOPC   O3259381  12.622   7.823   2.634  0.5336  0.1591  0.0112
  431DOPC   C3259382  12.682   7.703   2.839  0.0476  0.2916 -0.0960
  431DOPC   H2X59383  12.606   7.665   2.912 -2.5669  1.0403 -2.2510
  431DOPC   H2Y59384  12.748   7.619   2.809 -3.9606 -2.1528 -3.1546
  431DOPC   C2359385  12.678   7.210   2.576 -0.7027  0.3761  0.7951
  431DOPC   H3R59386  12.776   7.225   2.527 -0.9734 -0.1822  0.0597
  431DOPC   H3S59387  12.669   7.100   2.594 -1.8222  0.1287 -1.0376
  431DOPC   C2459388  12.671   7.287   2.708  0.1231  0.1833  0.5623
  431DOPC   H4R59389  12.563   7.306   2.730  0.1814  1.3616 -0.1065
  431DOPC   H4S59390  12.727   7.381   2.689  2.2630 -1.0233  0.6933
  431DOPC   C2559391  12.741   7.220   2.825 -0.1474 -0.9633  0.5870
  431DOPC   H5R59392  12.848   7.216   2.797 -0.0032  1.9854  0.3779
  431DOPC   H5S59393  12.710   7.115   2.842  0.0186 -0.6887  2.7732
  431DOPC   C2659394  12.736   7.303   2.958 -0.1102  0.2715 -0.2123
  431DOPC   H6R59395  12.627   7.317   2.975 -0.3170  0.2865 -1.4583
  431DOPC   H6S59396  12.763   7.408   2.936 -1.1299  0.8929  1.3352
  431DOPC   C2759397  12.811   7.233   3.070 -0.4362  0.3817  0.7321
  431DOPC   H7R59398  12.919   7.234   3.044 -0.5678  0.1502  0.1642
  431DOPC   H7S59399  12.782   7.126   3.076 -1.0751  0.5746  1.2047
  431DOPC   C2859400  12.795   7.293   3.212  0.0239  0.4818  0.0113
  431DOPC   H8R59401  12.823   7.399   3.196 -1.8192  1.3849  2.2194
  431DOPC   H8S59402  12.876   7.240   3.267 -0.8617 -2.3648 -1.2272
  431DOPC   C2959403  12.654   7.289   3.275  0.4362 -0.2349  0.4634
  431DOPC   H9R59404  12.599   7.384   3.266  1.0468  0.0511 -0.3655
  431DOPC  C21059405  12.588   7.184   3.319  0.9392  0.0596  0.6434
  431DOPC  H10R59406  12.486   7.192   3.359  0.2114 -2.5468 -0.4618
  431DOPC  C21159407  12.635   7.043   3.326 -0.8986 -0.3625  0.3999
  431DOPC  H11R59408  12.617   6.999   3.427 -2.7839 -1.6727 -0.4337
  431DOPC  H11S59409  12.744   7.031   3.310 -1.5492 -3.2523 -3.4063
  431DOPC  C21259410  12.545   6.960   3.225  0.0860 -0.6244 -0.1437
  431DOPC  H12R59411  12.580   7.003   3.129 -0.5818  2.1536  0.7340
  431DOPC  H12S59412  12.436   6.978   3.240 -0.0294 -1.6037  0.2095
  431DOPC  C21359413  12.572   6.815   3.233  0.8353  0.1087 -0.4430
  431DOPC  H13R59414  12.491   6.754   3.188 -0.4535  1.2709  0.2000
  431DOPC  H13S59415  12.567   6.788   3.341 -0.2223 -0.0616 -0.5186
  431DOPC  C21459416  12.710   6.774   3.185  0.7061 -0.3383 -0.1538
  431DOPC  H14R59417  12.783   6.801   3.264 -1.2673  0.6668  1.4261
  431DOPC  H14S59418  12.725   6.839   3.096 -1.8230  1.2878  0.4831
  431DOPC  C21559419  12.725   6.633   3.161  0.0960  0.6124  1.1717
  431DOPC  H15R59420  12.673   6.576   3.241  0.8844 -2.4190 -0.3095
  431DOPC  H15S59421  12.831   6.599   3.162 -0.6643 -1.9806  1.8629
  431DOPC  C21659422  12.661   6.591   3.022 -0.0688 -0.7432  0.4914
  431DOPC  H16R59423  12.720   6.650   2.948 -0.5721  0.3644  0.9462
  431DOPC  H16S59424  12.555   6.624   3.027 -0.1769 -1.2804  2.4099
  431DOPC  C21759425  12.679   6.447   2.985 -0.6122  0.6079  0.2706
  431DOPC  H17R59426  12.786   6.426   2.964 -1.0600  0.5753 -2.3960
  431DOPC  H17S59427  12.629   6.440   2.886 -0.1452 -1.9573  0.1612
  431DOPC  C21859428  12.635   6.325   3.075 -0.3142  0.4971  0.1605
  431DOPC  H18R59429  12.623   6.235   3.010 -2.4050  1.0442 -0.2731
  431DOPC  H18S59430  12.539   6.358   3.120 -0.1655  2.0758 -0.6007
  431DOPC  H18T59431  12.709   6.323   3.158  0.1374  0.3156 -0.2376
  431DOPC   C3359432  12.749   7.832   2.889  0.3194  0.2575 -0.5334
  431DOPC   H3X59433  12.676   7.912   2.916  0.4795  0.4930 -0.7946
  431DOPC   H3Y59434  12.809   7.879   2.808  1.1080 -2.0722 -1.3851
  431DOPC   C3459435  12.839   7.816   3.011 -0.3991 -0.5266 -0.0268
  431DOPC   H4X59436  12.881   7.915   3.040 -0.6373 -0.6212  0.6582
  431DOPC   H4Y59437  12.921   7.749   2.979  0.6738 -0.5202  2.4550
  431DOPC   C3559438  12.771   7.763   3.143  0.7255 -0.4255 -0.2458
  431DOPC   H5X59439  12.705   7.674   3.129  1.2147 -0.6908 -0.9269
  431DOPC   H5Y59440  12.713   7.848   3.185  2.9655  1.1280 -0.1225
  431DOPC   C3659441  12.881   7.723   3.242 -1.0090  0.8648  0.1974
  431DOPC   H6X59442  12.942   7.640   3.200 -0.3951  1.0536  0.7056
  431DOPC   H6Y59443  12.954   7.805   3.255  0.5413  0.0478 -2.5200
  431DOPC   C3759444  12.828   7.674   3.378 -0.0382 -0.3120 -0.5008
  431DOPC   H7X59445  12.750   7.744   3.414 -1.2712 -1.1079 -1.4829
  431DOPC   H7Y59446  12.778   7.575   3.372  0.1099 -0.3301 -1.9924
  431DOPC   C3859447  12.938   7.638   3.485  0.5442 -0.0870 -0.7369
  431DOPC   H8X59448  13.030   7.587   3.450  1.0445  1.3369 -1.5880
  431DOPC   H8Y59449  12.893   7.570   3.560 -0.4931  0.2322 -1.0481
  431DOPC   C3959450  12.966   7.771   3.556  0.1820 -0.3639 -1.3632
  431DOPC   H9X59451  12.992   7.853   3.488  0.4704  0.1767 -0.6109
  431DOPC  C31059452  12.930   7.812   3.682  0.4987 -0.0935 -0.2206
  431DOPC  H10X59453  12.955   7.913   3.717  2.8474 -1.1469  1.4002
  431DOPC  C31159454  12.870   7.723   3.791 -0.0417  0.8825 -0.7418
  431DOPC  H11X59455  12.858   7.620   3.751 -1.7818  0.6665  0.2322
  431DOPC  H11Y59456  12.768   7.747   3.830 -0.7430 -2.5257 -0.1171
  431DOPC  C31259457  12.962   7.705   3.915 -0.5653 -0.2552  0.2291
  431DOPC  H12X59458  12.932   7.623   3.983 -0.9308  0.3966  0.8688
  431DOPC  H12Y59459  13.055   7.674   3.862 -1.5650 -1.1030 -1.0982
  431DOPC  C31359460  12.971   7.837   3.987  0.1411 -0.3886  0.2872
  431DOPC  H13X59461  13.024   7.910   3.922 -0.5861  0.0009  0.1255
  431DOPC  H13Y59462  12.872   7.873   4.023  0.4460 -1.6989  2.6632
  431DOPC  C31459463  13.065   7.821   4.107 -1.1127 -0.7341 -0.3506
  431DOPC  H14X59464  13.021   7.756   4.185 -2.9483  0.6686 -0.1458
  431DOPC  H14Y59465  13.164   7.781   4.076 -0.2023  0.8381  0.4356
  431DOPC  C31559466  13.092   7.955   4.175 -0.2909 -0.4708 -0.3907
  431DOPC  H15X59467  13.107   7.945   4.285  0.3083  2.1670 -0.1471
  431DOPC  H15Y59468  12.999   8.014   4.162  0.3813  1.4487  2.4221
  431DOPC  C31659469  13.208   8.034   4.113  0.4414  0.2649  0.5269
  431DOPC  H16X59470  13.299   7.992   4.160  1.0900  1.2304  0.1663
  431DOPC  H16Y59471  13.208   8.018   4.004 -3.8672 -1.0805  0.5344
  431DOPC  C31759472  13.207   8.183   4.141 -0.5821  0.1870  0.0849
  431DOPC  H17X59473  13.230   8.203   4.248 -0.2265  2.8986 -0.4361
  431DOPC  H17Y59474  13.296   8.228   4.092  0.9222 -0.7002  1.8582
  431DOPC  C31859475  13.086   8.266   4.090  0.4018  0.7258 -0.4445
  431DOPC  H18X59476  13.086   8.368   4.133  0.5969 -0.1936  1.9047
  431DOPC  H18Y59477  13.084   8.273   3.980  2.4966 -2.3920 -0.8290
  431DOPC  H18Z59478  12.991   8.226   4.132  1.0226  1.4170  1.7788
  432DOPC     N59479   3.138   4.577   1.692 -0.6511 -0.3460  0.6561
  432DOPC   C1259480   3.111   4.689   1.792 -0.6180 -0.6836 -0.3248
  432DOPC  H12A59481   3.040   4.657   1.867 -1.4898 -0.3442 -0.9928
  432DOPC  H12B59482   3.066   4.770   1.738  3.2596  0.5586 -2.0534
  432DOPC   C1359483   3.222   4.637   1.578  0.9131  0.1365 -0.0511
  432DOPC  H13A59484   3.321   4.661   1.613  0.8139  1.1814 -0.4512
  432DOPC  H13B59485   3.222   4.571   1.493 -1.0613 -0.6442  0.4799
  432DOPC  H13C59486   3.180   4.728   1.537  0.8941  0.7334  1.2326
  432DOPC   C1459487   3.012   4.524   1.644 -0.2155  0.7044  0.1254
  432DOPC  H14A59488   3.019   4.450   1.565 -0.3173  1.1498 -0.3012
  432DOPC  H14B59489   2.964   4.471   1.725 -2.9586  0.6529 -1.4075
  432DOPC  H14C59490   2.940   4.597   1.609  1.1888  1.6576 -0.8398
  432DOPC   C1559491   3.204   4.466   1.763 -0.8552 -0.3770  0.3497
  432DOPC  H15A59492   3.296   4.506   1.803 -1.1929 -0.3942  1.1782
  432DOPC  H15B59493   3.226   4.383   1.697  0.1381 -0.0989  0.3211
  432DOPC  H15C59494   3.163   4.409   1.846  2.1341 -2.2229  0.7171
  432DOPC   C1159495   3.230   4.748   1.874  0.0099 -0.4457  0.6039
  432DOPC  H11A59496   3.198   4.831   1.940  0.0491  0.4797 -0.5091
  432DOPC  H11B59497   3.269   4.671   1.944 -0.3418 -0.8382  0.3700
  432DOPC     P59498   3.379   4.930   1.741 -0.1706  0.3800 -0.2341
  432DOPC   O1359499   3.280   4.996   1.653  0.1758 -0.1667  0.0456
  432DOPC   O1459500   3.522   4.924   1.696 -0.8154  0.4055 -0.2361
  432DOPC   O1259501   3.343   4.786   1.794 -0.1638  0.6431  0.4964
  432DOPC   O1159502   3.379   5.018   1.875 -0.4517 -0.1425  0.4087
  432DOPC    C159503   3.500   5.021   1.954  0.4596 -0.0841 -0.3305
  432DOPC    HA59504   3.501   5.115   2.013 -0.0773 -0.9213  1.0600
  432DOPC    HB59505   3.596   5.039   1.902  0.4567  2.3355  0.4101
  432DOPC    C259506   3.512   4.904   2.052  0.0111  0.2615  0.1934
  432DOPC    HS59507   3.510   4.808   1.996 -2.3641  0.2337  0.2210
  432DOPC   O2159508   3.395   4.900   2.137  0.1345 -0.5582 -0.0797
  432DOPC   C2159509   3.372   4.791   2.202  0.3403 -0.5086 -0.2092
  432DOPC   O2259510   3.415   4.679   2.177  0.4885 -0.5131  0.0100
  432DOPC   C2259511   3.288   4.833   2.324  0.1748 -0.1023 -0.2599
  432DOPC   H2R59512   3.187   4.786   2.320  1.2809 -2.6713 -0.0863
  432DOPC   H2S59513   3.284   4.944   2.320  3.1262  0.0558 -1.5369
  432DOPC    C359514   3.638   4.932   2.139  1.1129 -0.2326  0.7281
  432DOPC    HX59515   3.616   5.022   2.200  0.5968  0.1083  0.0480
  432DOPC    HY59516   3.722   4.961   2.072  0.5400 -1.3568 -0.5019
  432DOPC   O3159517   3.673   4.819   2.221  0.0925  0.0649  0.2098
  432DOPC   C3159518   3.733   4.727   2.152 -0.6589 -0.1177  0.5903
  432DOPC   O3259519   3.778   4.728   2.040  0.2254 -0.2431 -0.1557
  432DOPC   C3259520   3.777   4.615   2.253 -0.6186 -0.0357 -0.2105
  432DOPC   H2X59521   3.757   4.517   2.206  0.7629 -0.8377  0.7810
  432DOPC   H2Y59522   3.886   4.636   2.249 -0.7228  0.2687 -2.0936
  432DOPC   C2359523   3.351   4.785   2.454 -0.5629  0.2828 -0.2609
  432DOPC   H3R59524   3.458   4.817   2.458 -0.4147  0.1354 -2.1021
  432DOPC   H3S59525   3.346   4.675   2.462 -1.9069  0.3632  0.1386
  432DOPC   C2459526   3.285   4.862   2.572 -0.2432  0.2604  0.9002
  432DOPC   H4R59527   3.175   4.848   2.567  0.0710 -2.5369  0.3474
  432DOPC   H4S59528   3.315   4.968   2.553  1.1928 -0.3539 -0.4851
  432DOPC   C2559529   3.330   4.813   2.710  0.1614 -0.2553 -0.3787
  432DOPC   H5R59530   3.440   4.813   2.725  0.0594  3.1972  1.4256
  432DOPC   H5S59531   3.290   4.712   2.733 -0.9944  0.3205  0.2614
  432DOPC   C2659532   3.291   4.915   2.821 -0.0355  0.1728 -0.6526
  432DOPC   H6R59533   3.182   4.933   2.811 -0.0891  0.0393 -0.3425
  432DOPC   H6S59534   3.335   5.016   2.808 -0.4565  0.2607 -1.4373
  432DOPC   C2759535   3.328   4.855   2.962  0.2636  0.4419 -0.1893
  432DOPC   H7R59536   3.434   4.821   2.959 -0.0814 -0.6045 -0.8339
  432DOPC   H7S59537   3.262   4.769   2.983 -0.5731  1.1306  0.0562
  432DOPC   C2859538   3.306   4.953   3.075 -0.2567 -0.2741  0.0842
  432DOPC   H8R59539   3.318   5.061   3.054 -1.4504  0.0938  1.1153
  432DOPC   H8S59540   3.376   4.929   3.158  0.0800  0.2353 -0.0486
  432DOPC   C2959541   3.171   4.939   3.142  0.2146 -0.7282  0.4330
  432DOPC   H9R59542   3.091   5.004   3.103 -0.6072 -2.7237 -1.3772
  432DOPC  C21059543   3.131   4.845   3.236 -0.1874 -0.3090  0.1605
  432DOPC  H10R59544   3.033   4.855   3.285 -0.2262  0.7447 -0.0995
  432DOPC  C21159545   3.222   4.734   3.290  0.3993  0.7405  0.7473
  432DOPC  H11R59546   3.285   4.692   3.208  1.5560 -0.7120  2.3120
  432DOPC  H11S59547   3.154   4.657   3.331  2.2393 -1.5049 -0.1772
  432DOPC  C21259548   3.314   4.767   3.411  0.2545 -0.0147  0.0357
  432DOPC  H12R59549   3.393   4.842   3.387 -0.1540  0.1488 -0.8376
  432DOPC  H12S59550   3.351   4.669   3.447 -0.4098 -0.4432 -0.4394
  432DOPC  C21359551   3.234   4.828   3.531  0.0969  0.1690  1.1493
  432DOPC  H13R59552   3.155   4.755   3.560 -0.3134  0.2232  0.1954
  432DOPC  H13S59553   3.180   4.924   3.516 -0.1123  0.2259  2.1823
  432DOPC  C21459554   3.315   4.852   3.656 -0.3101 -0.5559  0.1502
  432DOPC  H14R59555   3.405   4.917   3.648  0.3896 -1.3157  1.5489
  432DOPC  H14S59556   3.361   4.752   3.672  0.8566  0.4358  4.0370
  432DOPC  C21559557   3.237   4.889   3.784  0.8661 -0.1270  1.2602
  432DOPC  H15R59558   3.178   4.799   3.812  0.4628  0.0770  1.0798
  432DOPC  H15S59559   3.173   4.980   3.771 -0.3576 -0.8175  2.1854
  432DOPC  C21659560   3.328   4.923   3.903  0.1830 -0.3119  0.1095
  432DOPC  H16R59561   3.369   5.025   3.886 -0.1979  0.2332  2.1746
  432DOPC  H16S59562   3.412   4.853   3.924  1.7727  1.6588  0.7631
  432DOPC  C21759563   3.254   4.961   4.033 -0.3431  0.6390  0.4049
  432DOPC  H17R59564   3.153   4.999   4.006 -1.3291 -2.3056 -0.4964
  432DOPC  H17S59565   3.309   5.035   4.094  0.4825 -0.3360  0.8776
  432DOPC  C21859566   3.224   4.833   4.114 -0.2811  0.3276 -0.1816
  432DOPC  H18R59567   3.220   4.739   4.054  0.5463 -0.8383  1.4976
  432DOPC  H18S59568   3.126   4.846   4.165 -0.4038  0.9246 -0.5726
  432DOPC  H18T59569   3.310   4.823   4.184 -1.9661  0.2003  1.9822
  432DOPC   C3359570   3.726   4.627   2.392 -0.1494  0.5533  0.2015
  432DOPC   H3X59571   3.619   4.597   2.396 -0.7852  2.6941  0.3172
  432DOPC   H3Y59572   3.729   4.725   2.444 -1.0998 -0.1952  1.7566
  432DOPC   C3459573   3.796   4.519   2.473  0.3784 -0.8164 -0.1498
  432DOPC   H4X59574   3.903   4.531   2.446  0.4992 -0.0303  0.6311
  432DOPC   H4Y59575   3.770   4.416   2.441 -0.3329 -0.7727  0.2693
  432DOPC   C3559576   3.776   4.545   2.628  0.1497  0.2689  0.6069
  432DOPC   H5X59577   3.675   4.522   2.668 -0.5078  2.2854  0.2050
  432DOPC   H5Y59578   3.788   4.653   2.651 -0.4533  0.3461  0.5713
  432DOPC   C3659579   3.879   4.459   2.709 -0.0109  1.1450  0.8992
  432DOPC   H6X59580   3.844   4.354   2.701  2.6473  0.2681 -0.4119
  432DOPC   H6Y59581   3.977   4.457   2.657 -0.4566 -0.8799  0.0535
  432DOPC   C3759582   3.887   4.492   2.858  0.4757 -0.6547 -0.0309
  432DOPC   H7X59583   3.956   4.426   2.915 -0.4464 -0.5419  1.2501
  432DOPC   H7Y59584   3.926   4.595   2.866  1.6507 -1.2079  2.0777
  432DOPC   C3859585   3.754   4.473   2.943  0.8388  0.2839  0.2481
  432DOPC   H8X59586   3.695   4.388   2.903 -2.5502  2.3891  0.3296
  432DOPC   H8Y59587   3.688   4.563   2.936 -1.4072 -1.3786 -1.6997
  432DOPC   C3959588   3.784   4.437   3.085  0.0594 -0.7031 -0.5696
  432DOPC   H9X59589   3.882   4.387   3.091  1.1688  1.3431 -0.7479
  432DOPC  C31059590   3.716   4.465   3.203 -0.5542  0.7328  0.6610
  432DOPC  H10X59591   3.745   4.406   3.291  0.5950 -0.5031 -0.4886
  432DOPC  C31159592   3.598   4.549   3.212  0.4546 -0.0417 -0.7013
  432DOPC  H11X59593   3.514   4.496   3.263 -0.6811  0.9023 -1.5260
  432DOPC  H11Y59594   3.556   4.575   3.113  0.2373  3.6123  0.1983
  432DOPC  C31259595   3.624   4.687   3.284  0.6589 -0.3725  0.3158
  432DOPC  H12X59596   3.536   4.754   3.273  1.8416  1.1277 -0.3016
  432DOPC  H12Y59597   3.712   4.734   3.236  0.0970 -1.5723 -2.0724
  432DOPC  C31359598   3.647   4.659   3.433 -0.1498 -0.7159 -0.2362
  432DOPC  H13X59599   3.556   4.613   3.477 -0.2129 -0.6674 -0.3148
  432DOPC  H13Y59600   3.725   4.580   3.437  1.2479  0.6500  0.5874
  432DOPC  C31459601   3.672   4.785   3.522 -0.5674  0.4651 -0.1040
  432DOPC  H14X59602   3.755   4.848   3.484  1.2006 -1.0953  1.0255
  432DOPC  H14Y59603   3.579   4.846   3.525 -0.0056  1.2858  1.5706
  432DOPC  C31559604   3.700   4.736   3.671  0.0441 -0.3475  0.0971
  432DOPC  H15X59605   3.784   4.664   3.679 -1.9195 -2.6065  1.6750
  432DOPC  H15Y59606   3.609   4.677   3.693 -0.8243  1.2645  1.0676
  432DOPC  C31659607   3.702   4.855   3.773  0.5797 -0.1707 -0.2766
  432DOPC  H16X59608   3.603   4.903   3.767  0.4565 -0.2054  1.1680
  432DOPC  H16Y59609   3.722   4.804   3.870 -3.4215 -5.0326 -1.5851
  432DOPC  C31759610   3.807   4.960   3.745  0.3181 -0.0346  0.6465
  432DOPC  H17X59611   3.897   4.895   3.743  0.4089  0.0580  1.4272
  432DOPC  H17Y59612   3.804   5.011   3.647  0.0519  0.5138  0.9293
  432DOPC  C31859613   3.819   5.060   3.860  0.2937  0.0944 -0.1977
  432DOPC  H18X59614   3.763   5.155   3.844 -1.0253 -0.8763 -1.6084
  432DOPC  H18Y59615   3.773   5.024   3.955  0.9201  1.8868  0.8532
  432DOPC  H18Z59616   3.926   5.084   3.879  0.1173  0.2257  0.7264
  433DOPC     N59617   4.768   0.398   1.877 -0.4559 -0.2168  0.4308
  433DOPC   C1259618   4.668   0.412   1.987  0.2313 -0.5936 -0.3075
  433DOPC  H12A59619   4.589   0.340   1.971  0.6183 -1.3008  0.8346
  433DOPC  H12B59620   4.617   0.508   1.985 -0.6500 -1.0205  0.6400
  433DOPC   C1359621   4.877   0.500   1.871 -0.6957  0.3346 -0.5319
  433DOPC  H13A59622   4.837   0.597   1.844  0.8304  1.9562  2.4997
  433DOPC  H13B59623   4.932   0.510   1.963 -1.5015  0.3479 -0.0383
  433DOPC  H13C59624   4.951   0.466   1.801  1.2551 -0.7539  1.9217
  433DOPC   C1459625   4.693   0.422   1.752 -0.3175 -0.1917  0.2485
  433DOPC  H14A59626   4.681   0.528   1.736  2.4474  0.1917  0.1198
  433DOPC  H14B59627   4.749   0.390   1.665 -0.0695 -0.7680  0.6131
  433DOPC  H14C59628   4.598   0.372   1.746  1.0850 -3.3124  1.8384
  433DOPC   C1559629   4.832   0.264   1.874  0.3947  0.3835 -0.0114
  433DOPC  H15A59630   4.893   0.253   1.963 -0.9435  1.5933  1.0941
  433DOPC  H15B59631   4.892   0.242   1.786 -0.6847  1.9641 -1.2048
  433DOPC  H15C59632   4.757   0.187   1.863  1.1424 -0.1735 -1.5901
  433DOPC   C1159633   4.726   0.407   2.132 -0.4552  0.0855 -0.3295
  433DOPC  H11A59634   4.789   0.496   2.154  1.5955 -1.7567  1.8293
  433DOPC  H11B59635   4.638   0.416   2.198  0.4807 -0.8537  1.1051
  433DOPC     P59636   4.756   0.164   2.232  0.5730  0.0501  0.1811
  433DOPC   O1359637   4.871   0.073   2.219 -0.6305 -0.1633 -0.6571
  433DOPC   O1459638   4.628   0.121   2.166  0.1198  0.1854 -0.4053
  433DOPC   O1259639   4.801   0.289   2.156 -0.0629 -0.3740  0.0635
  433DOPC   O1159640   4.732   0.214   2.381 -0.5153 -0.1662  0.4172
  433DOPC    C159641   4.847   0.250   2.456  0.0257 -0.3548 -0.3552
  433DOPC    HA59642   4.865   0.359   2.444 -2.2797  0.1625  0.2194
  433DOPC    HB59643   4.938   0.198   2.421 -1.2430 -1.3282 -2.4419
  433DOPC    C259644   4.827   0.230   2.614  0.3754 -0.3443  0.3361
  433DOPC    HS59645   4.833   0.119   2.621  2.5477 -0.2959  0.0556
  433DOPC   O2159646   4.701   0.275   2.656 -0.4972 -0.4436 -0.2281
  433DOPC   C2159647   4.654   0.232   2.767 -0.3653 -0.6937 -0.5530
  433DOPC   O2259648   4.698   0.139   2.835 -0.6515 -1.1255  0.6285
  433DOPC   C2259649   4.523   0.309   2.795  0.2270  0.2921 -0.4799
  433DOPC   H2R59650   4.454   0.297   2.709 -0.2011 -0.7165 -0.0153
  433DOPC   H2S59651   4.556   0.413   2.815  0.9690  0.3668 -1.9088
  433DOPC    C359652   4.944   0.285   2.703 -0.4900  0.0774 -0.3780
  433DOPC    HX59653   5.041   0.252   2.659 -0.6766  0.4963 -1.1202
  433DOPC    HY59654   4.945   0.230   2.800  2.4619 -0.4086 -0.5874
  433DOPC   O3159655   4.952   0.429   2.719  0.1901 -0.3717 -0.4266
  433DOPC   C3159656   4.893   0.479   2.827 -0.5230 -0.3929 -0.1018
  433DOPC   O3259657   4.832   0.420   2.916  0.1116  0.0848  0.1788
  433DOPC   C3259658   4.925   0.628   2.821 -0.0267 -0.6676  0.4553
  433DOPC   H2X59659   5.032   0.639   2.793 -0.3849  2.3291 -0.1026
  433DOPC   H2Y59660   4.853   0.674   2.751  0.8663 -0.8103 -0.5833
  433DOPC   C2359661   4.457   0.261   2.928 -0.0428 -0.7345 -0.5428
  433DOPC   H3R59662   4.476   0.152   2.936 -1.2530 -0.9774 -0.8199
  433DOPC   H3S59663   4.348   0.275   2.912 -0.5872 -0.7745  2.5738
  433DOPC   C2459664   4.515   0.349   3.044 -0.3117  0.3942 -0.5328
  433DOPC   H4R59665   4.487   0.455   3.027 -0.4924  0.8460  2.0478
  433DOPC   H4S59666   4.623   0.325   3.048 -0.2894  0.5420 -0.1900
  433DOPC   C2559667   4.458   0.303   3.183  0.2969  0.1534  0.3494
  433DOPC   H5R59668   4.479   0.197   3.205  1.2669  0.6021  1.6891
  433DOPC   H5S59669   4.347   0.316   3.180  0.2228  0.4030  2.5737
  433DOPC   C2659670   4.505   0.387   3.298 -0.2206 -0.8695 -0.3734
  433DOPC   H6R59671   4.453   0.484   3.300 -1.0754 -1.3358  0.3026
  433DOPC   H6S59672   4.614   0.408   3.294 -0.2861 -0.7425 -2.2710
  433DOPC   C2759673   4.452   0.329   3.427  0.3378  0.1878  0.3166
  433DOPC   H7R59674   4.468   0.220   3.445 -0.7614 -0.0302  0.0315
  433DOPC   H7S59675   4.343   0.348   3.440 -0.0038 -1.3174 -0.1595
  433DOPC   C2859676   4.514   0.404   3.550  0.0721  0.6230 -0.2505
  433DOPC   H8R59677   4.510   0.512   3.524  1.7653  0.7176 -0.2413
  433DOPC   H8S59678   4.622   0.386   3.572 -0.4208 -0.0206  1.8258
  433DOPC   C2959679   4.431   0.376   3.672 -0.3995  0.7297 -0.9018
  433DOPC   H9R59680   4.353   0.447   3.702 -0.4130  0.2916  0.1508
  433DOPC  C21059681   4.438   0.265   3.746  0.5023 -0.3194  0.1386
  433DOPC  H10R59682   4.374   0.251   3.834  0.2344 -0.1076 -0.0197
  433DOPC  C21159683   4.547   0.160   3.727  0.5000  0.6644  0.4037
  433DOPC  H11R59684   4.592   0.173   3.627 -0.4346  1.0327  0.0203
  433DOPC  H11S59685   4.504   0.058   3.729 -2.0978  1.4653 -3.5656
  433DOPC  C21259686   4.646   0.171   3.840 -0.3289  0.6125 -0.7981
  433DOPC  H12R59687   4.603   0.181   3.942 -0.1707 -1.6555 -0.4544
  433DOPC  H12S59688   4.711   0.262   3.838 -0.5596  0.7756 -0.9172
  433DOPC  C21359689   4.742   0.053   3.837  0.4431  0.5486 -0.1144
  433DOPC  H13R59690   4.839   0.093   3.873  0.4192  0.9972 -0.5361
  433DOPC  H13S59691   4.754   0.005   3.737 -2.9095 -1.7912  0.4160
  433DOPC  C21459692   4.686  -0.050   3.935 -1.3454 -0.1763 -0.1453
  433DOPC  H14R59693   4.584  -0.083   3.904 -1.2818 -0.6485  0.1269
  433DOPC  H14S59694   4.678  -0.002   4.035  0.8201  0.7941 -0.3965
  433DOPC  C21559695   4.769  -0.188   3.939  0.4733 -0.6081 -0.3455
  433DOPC  H15R59696   4.876  -0.175   3.967  0.6035 -0.6501 -0.8074
  433DOPC  H15S59697   4.752  -0.224   3.835 -1.0194  2.1543 -1.1768
  433DOPC  C21659698   4.714  -0.283   4.046 -0.0303  0.0619 -0.0389
  433DOPC  H16R59699   4.756  -0.383   4.021  1.7892  0.7359  0.1930
  433DOPC  H16S59700   4.604  -0.272   4.034  0.4434  3.5009 -2.7112
  433DOPC  C21759701   4.753  -0.242   4.192 -0.5710  0.7189 -0.2779
  433DOPC  H17R59702   4.734  -0.133   4.195 -1.8580  0.4993  1.8553
  433DOPC  H17S59703   4.864  -0.253   4.198 -0.2056  2.1789 -2.9160
  433DOPC  C21859704   4.679  -0.322   4.307 -0.5287 -0.0235  0.8857
  433DOPC  H18R59705   4.616  -0.407   4.271 -0.4564  0.0205  0.6543
  433DOPC  H18S59706   4.618  -0.249   4.365  0.3871 -0.7646  2.8621
  433DOPC  H18T59707   4.749  -0.363   4.383  1.4091 -0.5622 -1.1031
  433DOPC   C3359708   4.890   0.697   2.957  0.8110 -1.0131  1.0782
  433DOPC   H3X59709   4.782   0.677   2.974  0.2024 -1.5979 -2.6246
  433DOPC   H3Y59710   4.910   0.805   2.940  1.5764 -1.1902  0.7970
  433DOPC   C3459711   4.976   0.652   3.074  0.3430  0.4766 -0.1817
  433DOPC   H4X59712   4.966   0.542   3.088 -0.3112  0.5435 -0.0941
  433DOPC   H4Y59713   4.935   0.696   3.168  0.9693  1.5398 -0.3957
  433DOPC   C3559714   5.128   0.694   3.071  0.6664  0.8386  0.6183
  433DOPC   H5X59715   5.179   0.657   2.980  0.6961  1.4494  0.3817
  433DOPC   H5Y59716   5.171   0.628   3.149 -0.5786 -1.0231 -0.1969
  433DOPC   C3659717   5.146   0.848   3.083  0.1967 -0.2602  0.3086
  433DOPC   H6X59718   5.090   0.899   3.003 -0.6708  0.0925  1.1166
  433DOPC   H6Y59719   5.124   0.890   3.184  2.1799  0.7657  0.3687
  433DOPC   C3759720   5.290   0.898   3.058 -1.0723 -0.0712 -0.1533
  433DOPC   H7X59721   5.355   0.829   3.116 -0.2809 -0.4203 -1.4122
  433DOPC   H7Y59722   5.315   0.891   2.950 -1.1337 -1.9914 -0.0762
  433DOPC   C3859723   5.319   1.039   3.120  0.0876 -0.1284  0.4818
  433DOPC   H8X59724   5.425   1.071   3.123  0.1709 -0.4016  0.4416
  433DOPC   H8Y59725   5.279   1.036   3.223 -1.3242 -0.7998 -0.0617
  433DOPC   C3959726   5.250   1.149   3.044 -0.0209  0.1817  0.0809
  433DOPC   H9X59727   5.265   1.138   2.935  0.7018  0.7636  0.1218
  433DOPC  C31059728   5.189   1.262   3.082 -0.4856  1.0277 -0.1809
  433DOPC  H10X59729   5.134   1.316   3.003  0.6205 -0.4375 -2.0237
  433DOPC  C31159730   5.179   1.320   3.224 -0.2162  0.3294  0.5674
  433DOPC  H11X59731   5.216   1.245   3.298 -1.8101 -0.4165  0.6376
  433DOPC  H11Y59732   5.075   1.344   3.255  0.2735 -0.2599  2.9167
  433DOPC  C31259733   5.254   1.457   3.225 -0.0695  0.3096 -0.6210
  433DOPC  H12X59734   5.221   1.525   3.144 -1.2795 -0.7917 -1.0870
  433DOPC  H12Y59735   5.358   1.433   3.195 -0.3356  0.9116 -2.1518
  433DOPC  C31359736   5.240   1.522   3.359  1.0309  0.0695 -0.4146
  433DOPC  H13X59737   5.135   1.513   3.393  1.4674  1.0927  1.3282
  433DOPC  H13Y59738   5.299   1.452   3.422  1.6058  0.3184 -0.6704
  433DOPC  C31459739   5.293   1.666   3.371  0.2928 -0.5969 -0.1946
  433DOPC  H14X59740   5.268   1.715   3.468  0.3468  0.4259 -0.6794
  433DOPC  H14Y59741   5.404   1.673   3.376  0.2080  0.9375  0.1990
  433DOPC  C31559742   5.239   1.762   3.261  0.2976 -0.4301 -0.0227
  433DOPC  H15X59743   5.129   1.751   3.270  0.1366 -0.1538 -1.4894
  433DOPC  H15Y59744   5.278   1.723   3.165  1.6860  0.8385  0.0051
  433DOPC  C31659745   5.283   1.906   3.270  0.0446 -0.2059  1.2944
  433DOPC  H16X59746   5.245   1.955   3.363 -1.0562 -2.1931  1.9439
  433DOPC  H16Y59747   5.393   1.908   3.262 -0.0290 -2.3255 -3.6312
  433DOPC  C31759748   5.227   1.981   3.144 -0.2079  0.2512  0.1936
  433DOPC  H17X59749   5.121   1.947   3.139 -0.4227  0.8135  0.6946
  433DOPC  H17Y59750   5.241   2.090   3.159 -0.2994  0.5413 -1.6995
  433DOPC  C31859751   5.295   1.950   3.013 -0.1334 -0.0772  0.0997
  433DOPC  H18X59752   5.258   1.854   2.972  0.2876  0.3558 -1.3554
  433DOPC  H18Y59753   5.269   2.027   2.937 -0.7573 -1.3200 -0.9701
  433DOPC  H18Z59754   5.406   1.944   3.020 -0.2223 -2.3104  0.1565
  434DOPC     N59755   6.064  12.173   2.499  0.0686 -0.1203 -0.4039
  434DOPC   C1259756   5.940  12.170   2.586  0.3686 -0.7675 -0.6516
  434DOPC  H12A59757   5.894  12.073   2.587 -1.5235  0.0992 -0.8168
  434DOPC  H12B59758   5.860  12.227   2.544  0.6981  0.0943 -0.1434
  434DOPC   C1359759   6.175  12.082   2.557  0.1813 -0.0308 -0.1325
  434DOPC  H13A59760   6.204  12.120   2.653  1.8275 -0.9880 -0.2024
  434DOPC  H13B59761   6.124  11.987   2.569  0.2611 -0.0539  0.0356
  434DOPC  H13C59762   6.257  12.067   2.487 -0.2276 -2.7361 -0.1543
  434DOPC   C1459763   6.124  12.312   2.491 -0.1204  0.4605  0.1438
  434DOPC  H14A59764   6.047  12.381   2.457 -1.8335 -1.6904 -0.5629
  434DOPC  H14B59765   6.157  12.350   2.587 -2.1641 -1.0598  1.5291
  434DOPC  H14C59766   6.210  12.310   2.426 -0.0587 -1.5307  0.2203
  434DOPC   C1559767   6.030  12.134   2.366 -1.0459  1.0413  0.1786
  434DOPC  H15A59768   6.119  12.113   2.309 -1.1483  2.3979 -0.5171
  434DOPC  H15B59769   5.974  12.212   2.316  1.9291  1.3726 -3.0607
  434DOPC  H15C59770   5.973  12.042   2.356  1.7252 -0.6438 -1.6924
  434DOPC   C1159771   5.959  12.217   2.730  0.2316  0.3245 -0.7263
  434DOPC  H11A59772   5.865  12.185   2.779 -0.0339  1.1690 -0.6730
  434DOPC  H11B59773   6.033  12.160   2.791 -2.5339 -1.4772  1.1482
  434DOPC     P59774   5.858  12.455   2.744  0.0217  0.5576 -0.4128
  434DOPC   O1359775   5.743  12.378   2.699 -0.0139  0.9512  0.2085
  434DOPC   O1459776   5.884  12.584   2.681 -0.1224 -0.5063  0.2898
  434DOPC   O1259777   5.984  12.359   2.740  0.0666  0.0761  0.2043
  434DOPC   O1159778   5.835  12.479   2.892  0.3347  0.5245 -0.6608
  434DOPC    C159779   5.904  12.575   2.970  0.6415 -0.3996 -0.0670
  434DOPC    HA59780   5.868  12.679   2.950 -0.0444 -0.8673 -1.3639
  434DOPC    HB59781   6.013  12.573   2.947  0.3577  3.3038 -2.7215
  434DOPC    C259782   5.872  12.558   3.122 -0.2606  0.7591  0.3505
  434DOPC    HS59783   5.762  12.550   3.137 -0.5999  1.6510 -1.4519
  434DOPC   O2159784   5.920  12.662   3.201 -0.4080  0.5047  0.2879
  434DOPC   C2159785   5.857  12.683   3.311 -0.2557  0.2224  0.0068
  434DOPC   O2259786   5.761  12.622   3.358  0.3874  0.3370  0.0397
  434DOPC   C2259787   5.927  12.799   3.386 -0.6427 -0.2845  0.1183
  434DOPC   H2R59788   5.940  12.886   3.318  1.0350  1.5124  2.5672
  434DOPC   H2S59789   6.025  12.756   3.417 -1.1873 -0.0660  2.2789
  434DOPC    C359790   5.932  12.414   3.156 -0.1392 -1.0519  0.0845
  434DOPC    HX59791   6.037  12.432   3.125 -0.0862 -1.2580  0.1409
  434DOPC    HY59792   5.888  12.338   3.087 -1.0624  1.5677 -2.4129
  434DOPC   O3159793   5.911  12.379   3.296  0.4747  0.2601 -0.2291
  434DOPC   C3159794   5.798  12.311   3.312  0.2027 -0.2864  0.0461
  434DOPC   O3259795   5.711  12.297   3.226 -0.0504 -0.8242 -0.1783
  434DOPC   C3259796   5.809  12.243   3.442 -0.2696  0.5417  0.1789
  434DOPC   H2X59797   5.910  12.197   3.444  0.1720  1.4044 -1.1249
  434DOPC   H2Y59798   5.794  12.314   3.526  1.1781  0.1819  0.7784
  434DOPC   C2359799   5.855  12.852   3.510  0.1098 -0.1748  0.0662
  434DOPC   H3R59800   5.850  12.772   3.587 -0.9856  1.4932  1.8169
  434DOPC   H3S59801   5.749  12.879   3.490  0.2525  0.0362 -0.4428
  434DOPC   C2459802   5.928  12.965   3.587 -0.1429  0.1148 -0.3339
  434DOPC   H4R59803   5.854  12.989   3.667 -0.6001  2.1750 -1.3189
  434DOPC   H4S59804   5.932  13.054   3.521 -1.2950  0.4551  0.0365
  434DOPC   C2559805   6.057  12.912   3.646 -0.4951  0.5603 -0.5081
  434DOPC   H5R59806   6.115  12.861   3.567  0.6882 -1.5688  1.6185
  434DOPC   H5S59807   6.029  12.840   3.726  0.7637  2.2562  1.5817
  434DOPC   C2659808   6.155  13.021   3.697 -0.5076  0.0932 -0.0974
  434DOPC   H6R59809   6.166  13.091   3.611  0.6191 -0.6355 -0.5665
  434DOPC   H6S59810   6.253  12.969   3.701 -0.7234 -0.2435  2.5418
  434DOPC   C2759811   6.117  13.088   3.829 -0.0511  0.7201  0.6003
  434DOPC   H7R59812   6.086  13.013   3.905  0.5952 -0.7842 -0.5723
  434DOPC   H7S59813   6.026  13.150   3.815 -0.8561 -0.1375  1.8563
  434DOPC   C2859814   6.235  13.165   3.888  0.6440 -0.5684 -0.4534
  434DOPC   H8R59815   6.318  13.096   3.915 -0.1570  0.1217  4.7625
  434DOPC   H8S59816   6.194  13.207   3.982 -0.7423 -1.6991 -0.5263
  434DOPC   C2959817   6.290  13.282   3.799 -0.2853  1.1421 -0.5881
  434DOPC   H9R59818   6.207  13.345   3.764  0.6201  3.3098  0.9501
  434DOPC  C21059819   6.414  13.304   3.744  0.4191 -0.3283 -0.3479
  434DOPC  H10R59820   6.425  13.393   3.680  0.8906  0.2564  0.5321
  434DOPC  C21159821   6.533  13.217   3.768  0.4883  0.3667 -0.4667
  434DOPC  H11R59822   6.523  13.172   3.869 -1.5717  1.0720 -0.3205
  434DOPC  H11S59823   6.626  13.277   3.775  1.6661 -1.5480  1.9429
  434DOPC  C21259824   6.554  13.107   3.666 -0.1961  0.0751  0.2112
  434DOPC  H12R59825   6.592  13.153   3.573 -0.3352  0.6841  0.4542
  434DOPC  H12S59826   6.463  13.044   3.649  0.2235 -0.3383 -0.5449
  434DOPC  C21359827   6.666  13.009   3.704  0.1723  0.7717  0.4702
  434DOPC  H13R59828   6.750  13.079   3.725 -0.1512  0.7635  1.8574
  434DOPC  H13S59829   6.691  12.931   3.629 -1.0722  0.4695  0.3494
  434DOPC  C21459830   6.635  12.915   3.829 -0.2266 -0.1921 -0.1969
  434DOPC  H14R59831   6.639  12.980   3.920  0.5753  0.2006 -0.4992
  434DOPC  H14S59832   6.721  12.845   3.832 -1.0393 -1.5003 -3.4300
  434DOPC  C21559833   6.507  12.835   3.829 -0.1170  0.2752  0.0008
  434DOPC  H15R59834   6.417  12.901   3.834 -0.3562 -0.0973  0.8610
  434DOPC  H15S59835   6.503  12.793   3.932  1.0428  4.4329  1.9688
  434DOPC  C21659836   6.500  12.730   3.723 -0.3280  0.1635  0.1327
  434DOPC  H16R59837   6.588  12.663   3.731  0.3998  1.2656  2.0439
  434DOPC  H16S59838   6.493  12.776   3.622  2.7779 -1.2455 -0.8444
  434DOPC  C21759839   6.376  12.649   3.735  0.1851  0.0046 -0.0282
  434DOPC  H17R59840   6.322  12.648   3.638 -0.7850  0.4702  0.4908
  434DOPC  H17S59841   6.305  12.700   3.803  1.1023  0.1775  0.8265
  434DOPC  C21859842   6.396  12.509   3.801 -0.2804 -0.6296  0.6460
  434DOPC  H18R59843   6.451  12.447   3.728  0.1300  1.9954 -1.4138
  434DOPC  H18S59844   6.301  12.453   3.811 -1.2610  0.4326 -1.8719
  434DOPC  H18T59845   6.463  12.532   3.887  0.6824 -0.2156 -0.1865
  434DOPC   C3359846   5.702  12.141   3.467  0.2151  0.2968  0.2615
  434DOPC   H3X59847   5.715  12.055   3.398 -1.8202  0.3140 -0.2116
  434DOPC   H3Y59848   5.607  12.188   3.435 -0.6324 -1.0526  0.6927
  434DOPC   C3459849   5.703  12.085   3.598  1.1432  0.2367  0.1378
  434DOPC   H4X59850   5.694  12.174   3.664  0.7010  2.0453 -2.2634
  434DOPC   H4Y59851   5.801  12.041   3.629  0.7930 -0.0356  0.8790
  434DOPC   C3559852   5.600  11.973   3.619 -0.3864 -0.1884 -0.2044
  434DOPC   H5X59853   5.634  11.888   3.557  3.4752 -0.3509  1.8495
  434DOPC   H5Y59854   5.499  11.989   3.574 -0.6620 -0.4550  0.3109
  434DOPC   C3659855   5.607  11.921   3.770  0.1848 -0.0716 -0.2641
  434DOPC   H6X59856   5.714  11.902   3.794 -0.5361 -1.5551  2.1286
  434DOPC   H6Y59857   5.568  11.996   3.841 -2.0529 -0.9337 -0.5127
  434DOPC   C3759858   5.537  11.787   3.789 -0.0262 -0.6690 -0.1802
  434DOPC   H7X59859   5.431  11.800   3.758  0.3069 -0.5616 -1.2988
  434DOPC   H7Y59860   5.588  11.705   3.735  1.3148  0.2398 -0.3450
  434DOPC   C3859861   5.543  11.762   3.940 -0.4363 -0.0251 -0.8315
  434DOPC   H8X59862   5.486  11.845   3.988 -0.0888 -0.0346 -0.3967
  434DOPC   H8Y59863   5.649  11.786   3.962 -0.8672  1.2912 -0.0694
  434DOPC   C3959864   5.511  11.622   3.995 -0.2847  0.2080  0.1135
  434DOPC   H9X59865   5.477  11.548   3.921 -2.5781  0.9062  0.4044
  434DOPC  C31059866   5.532  11.584   4.123  0.5620  0.3141 -0.4986
  434DOPC  H10X59867   5.507  11.481   4.152  0.3676  0.5021  0.0204
  434DOPC  C31159868   5.576  11.678   4.229 -0.2366  0.7347  0.2206
  434DOPC  H11X59869   5.488  11.745   4.242 -0.8359  0.0416 -0.2421
  434DOPC  H11Y59870   5.659  11.749   4.211 -0.1505  0.6828  0.4110
  434DOPC  C31259871   5.601  11.610   4.360 -0.0853 -0.4510  0.5764
  434DOPC  H12X59872   5.690  11.547   4.339 -0.1957  0.6228 -4.6316
  434DOPC  H12Y59873   5.511  11.554   4.392 -0.8797  1.0777  1.0912
  434DOPC  C31359874   5.646  11.703   4.473 -0.0574 -0.2517  0.3925
  434DOPC  H13X59875   5.733  11.762   4.436  0.5717  1.3300  3.9017
  434DOPC  H13Y59876   5.568  11.776   4.504  0.8841  0.7353  0.5007
  434DOPC  C31459877   5.689  11.618   4.599 -0.3020  0.1682  0.4949
  434DOPC  H14X59878   5.618  11.532   4.609  0.9991 -0.8874  0.9767
  434DOPC  H14Y59879   5.781  11.561   4.576 -2.4391 -2.3975 -2.8130
  434DOPC  C31559880   5.717  11.698   4.723 -0.0257 -0.0929  0.0231
  434DOPC  H15X59881   5.629  11.751   4.765  0.1538 -1.2168  1.9007
  434DOPC  H15Y59882   5.796  11.773   4.703  0.9742 -1.4680 -1.3857
  434DOPC  C31659883   5.753  11.615   4.847  0.0022 -0.6635 -0.5845
  434DOPC  H16X59884   5.761  11.692   4.927  1.2797 -0.5491 -0.7846
  434DOPC  H16Y59885   5.667  11.550   4.869 -0.3784  0.2122  0.6053
  434DOPC  C31759886   5.890  11.543   4.852  0.3207  0.4222 -0.2544
  434DOPC  H17X59887   5.892  11.454   4.786 -4.3599 -3.1331  3.6458
  434DOPC  H17Y59888   5.957  11.617   4.805 -0.1302  0.9282 -0.1133
  434DOPC  C31859889   5.944  11.505   4.988  0.8915 -0.3376 -1.1150
  434DOPC  H18X59890   5.962  11.591   5.055  1.1275 -0.4328 -1.0547
  434DOPC  H18Y59891   5.875  11.436   5.042 -0.6515  1.3980 -0.7640
  434DOPC  H18Z59892   6.046  11.461   4.980  0.4607 -1.5992 -0.0721
  435DOPC     N59893   2.225  10.033   1.837 -0.2029  1.2738 -0.1095
  435DOPC   C1259894   2.309   9.920   1.793  0.0082  0.3227  0.4111
  435DOPC  H12A59895   2.405   9.952   1.755  0.5492 -1.4584  0.1769
  435DOPC  H12B59896   2.257   9.877   1.708  0.8481  1.6161 -0.8060
  435DOPC   C1359897   2.260  10.148   1.746 -0.4027 -0.4118 -0.2827
  435DOPC  H13A59898   2.249  10.132   1.639 -2.1836 -1.8835  0.0735
  435DOPC  H13B59899   2.189  10.227   1.764 -0.4205 -0.2822 -0.8979
  435DOPC  H13C59900   2.361  10.184   1.742  0.2710 -2.2622 -1.2123
  435DOPC   C1459901   2.260  10.077   1.970 -0.0249 -0.1327 -0.3956
  435DOPC  H14A59902   2.365  10.098   1.986 -0.7446  3.5140  0.6627
  435DOPC  H14B59903   2.216  10.174   1.991  0.2695 -0.5574  2.6255
  435DOPC  H14C59904   2.229   9.999   2.037 -1.0291  0.5263 -0.0758
  435DOPC   C1559905   2.076  10.012   1.826 -0.1487  1.0044 -0.0154
  435DOPC  H15A59906   2.051   9.969   1.730  0.6977  2.9341 -1.1578
  435DOPC  H15B59907   2.032  10.111   1.832 -1.1592  0.4756  2.3815
  435DOPC  H15C59908   2.030   9.952   1.903  0.3360  0.8963  0.1869
  435DOPC   C1159909   2.341   9.798   1.884 -0.3479 -0.0086 -0.3414
  435DOPC  H11A59910   2.252   9.746   1.926 -0.0533  0.5267  0.9936
  435DOPC  H11B59911   2.389   9.720   1.821 -1.4775 -1.6711  0.7686
  435DOPC     P59912   2.586   9.882   1.957 -0.2804  0.2643 -0.1283
  435DOPC   O1359913   2.635   9.973   2.063  0.1457 -0.2046  0.3862
  435DOPC   O1459914   2.598   9.920   1.814 -0.1322  0.4519  0.0368
  435DOPC   O1259915   2.430   9.837   1.988 -0.8208  0.3459  0.5202
  435DOPC   O1159916   2.661   9.741   1.975 -0.5569 -0.2375 -0.2671
  435DOPC    C159917   2.636   9.641   2.072 -0.8431  0.4273  0.3242
  435DOPC    HA59918   2.681   9.551   2.026 -1.7464  0.4870 -0.7301
  435DOPC    HB59919   2.528   9.614   2.078 -0.5137 -1.2615 -0.5906
  435DOPC    C259920   2.700   9.652   2.214  0.3691 -0.4032 -0.4430
  435DOPC    HS59921   2.709   9.551   2.260 -0.5174 -0.8030 -1.1071
  435DOPC   O2159922   2.613   9.732   2.302  0.1405 -0.0772 -0.1863
  435DOPC   C2159923   2.513   9.673   2.354  0.6833 -0.8460 -0.9409
  435DOPC   O2259924   2.463   9.568   2.320  0.4192 -0.7603 -0.1434
  435DOPC   C2259925   2.458   9.755   2.478 -0.6292 -0.0890  0.0520
  435DOPC   H2R59926   2.417   9.675   2.544 -2.3056  0.4207 -0.3244
  435DOPC   H2S59927   2.375   9.821   2.446  0.2565  0.6717 -0.7406
  435DOPC    C359928   2.840   9.708   2.204  0.1732 -0.6471  0.2505
  435DOPC    HX59929   2.829   9.808   2.157  1.5517 -0.4621  0.2866
  435DOPC    HY59930   2.914   9.646   2.148  0.6356 -1.4373  1.6947
  435DOPC   O3159931   2.886   9.713   2.342 -0.7276  0.3515  0.6149
  435DOPC   C3159932   2.946   9.824   2.382  0.1755 -0.3123 -0.2319
  435DOPC   O3259933   2.984   9.916   2.307 -0.5394  0.6117 -0.0901
  435DOPC   C3259934   2.965   9.821   2.534  0.6905  0.0836 -0.5202
  435DOPC   H2X59935   2.869   9.836   2.587  0.1202  1.2924 -1.8301
  435DOPC   H2Y59936   3.010   9.724   2.563  4.6591  1.8994  0.0193
  435DOPC   C2359937   2.554   9.842   2.563 -1.0229 -0.2453 -0.8465
  435DOPC   H3R59938   2.566   9.937   2.507  1.0896 -0.3174 -0.5633
  435DOPC   H3S59939   2.656   9.801   2.576 -0.5536  1.3126  0.8315
  435DOPC   C2459940   2.496   9.882   2.694  0.2744  0.0120 -0.0487
  435DOPC   H4R59941   2.469   9.792   2.753 -1.5915 -0.4083 -1.4744
  435DOPC   H4S59942   2.400   9.934   2.672  0.3361  0.4708  0.7057
  435DOPC   C2559943   2.592   9.961   2.779  0.1427 -0.0016  1.0291
  435DOPC   H5R59944   2.534  10.014   2.858  0.2020 -1.7853  2.3281
  435DOPC   H5S59945   2.620  10.046   2.713  0.9929 -1.8544 -1.1417
  435DOPC   C2659946   2.706   9.887   2.840 -0.4815  0.0660  0.7221
  435DOPC   H6R59947   2.779   9.841   2.770 -1.1974  0.5935 -0.4126
  435DOPC   H6S59948   2.664   9.798   2.891  1.1518 -2.9514 -2.7054
  435DOPC   C2759949   2.790   9.971   2.935 -0.2360 -0.5558 -0.8888
  435DOPC   H7R59950   2.727   9.987   3.026  2.6770  0.5531  1.1073
  435DOPC   H7S59951   2.807  10.072   2.891  1.8682 -0.3233  0.2681
  435DOPC   C2859952   2.929   9.911   2.983  0.1185 -0.1445 -0.2598
  435DOPC   H8R59953   2.991   9.884   2.895  2.6515 -0.0238  1.3795
  435DOPC   H8S59954   2.898   9.827   3.049 -0.5157  1.5266  1.6872
  435DOPC   C2959955   3.009  10.021   3.057 -0.0563 -0.1910  0.1516
  435DOPC   H9R59956   3.021  10.117   3.005  1.0381  0.5054  1.6094
  435DOPC  C21059957   3.072   9.999   3.176 -0.1086 -0.8988  0.5460
  435DOPC  H10R59958   3.132  10.084   3.214 -1.2929 -0.0095  0.5037
  435DOPC  C21159959   3.072   9.870   3.255  0.3841  0.5060 -0.3173
  435DOPC  H11R59960   3.174   9.835   3.280  0.8058  2.8719  1.6751
  435DOPC  H11S59961   3.033   9.786   3.194  1.6221  0.3121 -0.8716
  435DOPC  C21259962   2.991   9.875   3.383  0.7590  0.4554  0.3896
  435DOPC  H12R59963   2.885   9.899   3.357  0.3668 -0.6615  0.9024
  435DOPC  H12S59964   3.024   9.965   3.440 -1.1465 -0.1403  2.6027
  435DOPC  C21359965   2.992   9.751   3.473  0.3408  0.5769 -0.7392
  435DOPC  H13R59966   3.098   9.743   3.508  0.1210 -0.4907 -0.2741
  435DOPC  H13S59967   2.956   9.661   3.419 -1.1092 -1.0643  2.6455
  435DOPC  C21459968   2.918   9.769   3.609 -0.6126  0.1467  0.2509
  435DOPC  H14R59969   2.815   9.812   3.606  0.4356  2.7652 -0.5182
  435DOPC  H14S59970   2.981   9.844   3.660 -1.4530 -1.0371  3.2623
  435DOPC  C21559971   2.908   9.643   3.698 -0.1544  0.0518  0.3096
  435DOPC  H15R59972   3.012   9.621   3.728 -0.5902 -2.1168  0.4047
  435DOPC  H15S59973   2.874   9.560   3.632  2.7042 -1.8069  0.9941
  435DOPC  C21659974   2.826   9.664   3.831  0.5093  0.3845 -0.1877
  435DOPC  H16R59975   2.723   9.658   3.790  0.6224 -0.2192 -0.3982
  435DOPC  H16S59976   2.856   9.761   3.875  1.1361 -0.9433  2.5654
  435DOPC  C21759977   2.854   9.559   3.934  0.4258 -0.0023 -0.9878
  435DOPC  H17R59978   2.963   9.559   3.958  1.0402 -1.9321 -3.3017
  435DOPC  H17S59979   2.835   9.460   3.888 -0.4735  0.2643 -1.2024
  435DOPC  C21859980   2.762   9.567   4.056  0.3003 -0.3338  0.6979
  435DOPC  H18R59981   2.774   9.669   4.098  0.1076 -0.1404  0.2940
  435DOPC  H18S59982   2.795   9.484   4.121  0.0929  0.4805  1.8605
  435DOPC  H18T59983   2.663   9.537   4.016  1.1706 -3.2150  0.4800
  435DOPC   C3359984   3.061   9.930   2.582 -0.2546 -0.4874  0.2136
  435DOPC   H3X59985   3.149   9.947   2.517 -1.0483  3.0722 -0.1636
  435DOPC   H3Y59986   3.101   9.912   2.684  0.4390 -0.4210 -0.0439
  435DOPC   C3459987   2.976  10.061   2.598  0.6154 -0.0437 -0.0518
  435DOPC   H4X59988   2.893  10.048   2.672  0.3871  0.6862 -0.1710
  435DOPC   H4Y59989   2.920  10.094   2.508 -2.6131 -0.4789  1.6134
  435DOPC   C3559990   3.064  10.180   2.626 -0.6564 -0.7897  0.4200
  435DOPC   H5X59991   3.145  10.182   2.549 -1.4259 -1.8421 -0.4478
  435DOPC   H5Y59992   3.114  10.149   2.720  0.8228  0.5669  0.1339
  435DOPC   C3659993   2.987  10.309   2.640  0.6156 -0.3525 -0.9862
  435DOPC   H6X59994   2.955  10.344   2.540  0.9804 -1.2752 -1.4364
  435DOPC   H6Y59995   2.898  10.277   2.700  1.7426 -1.2093  0.2908
  435DOPC   C3759996   3.062  10.422   2.714  0.7610  0.1061 -0.0397
  435DOPC   H7X59997   3.150  10.451   2.651 -0.1830 -0.6590 -1.7801
  435DOPC   H7Y59998   2.999  10.513   2.716  1.1367  0.3698  2.6016
  435DOPC   C3859999   3.090  10.403   2.861 -0.4350  0.8241 -0.0863
  435DOPC   H8X60000   3.155  10.313   2.866 -2.5073 -1.0002 -2.8174
  435DOPC   H8Y60001   3.003  10.368   2.921 -0.5301  0.4014 -0.4645
  435DOPC   C3960002   3.162  10.517   2.924  0.5552  0.1653 -0.4958
  435DOPC   H9X60003   3.235  10.570   2.860  3.2173 -0.2870  1.9274
  435DOPC  C31060004   3.157  10.544   3.056 -0.2531 -0.0876 -0.6465
  435DOPC  H10X60005   3.223  10.623   3.096  0.5608 -0.8828 -0.3973
  435DOPC  C31160006   3.092  10.464   3.166  0.6852  0.1184 -0.0933
  435DOPC  H11X60007   3.017  10.393   3.126  0.1757 -0.1675  1.2942
  435DOPC  H11Y60008   3.033  10.520   3.242  1.0543 -0.1034  0.3654
  435DOPC  C31260009   3.192  10.369   3.228  0.8069 -0.4879 -0.5613
  435DOPC  H12X60010   3.249  10.301   3.161  1.4489  1.2108 -1.7937
  435DOPC  H12Y60011   3.131  10.302   3.293  1.0025  0.2294  0.3941
  435DOPC  C31360012   3.296  10.445   3.311  0.0272  0.0691  0.3049
  435DOPC  H13X60013   3.357  10.366   3.357 -0.3922 -1.1219 -1.0924
  435DOPC  H13Y60014   3.358  10.510   3.245 -0.5592 -1.4340 -1.8418
  435DOPC  C31460015   3.246  10.538   3.420  0.3919 -0.0758 -0.4270
  435DOPC  H14X60016   3.161  10.601   3.385 -1.1308 -1.6988  0.1995
  435DOPC  H14Y60017   3.201  10.468   3.493 -2.2644  0.5120 -1.3891
  435DOPC  C31560018   3.353  10.622   3.487  0.4801  0.1035 -0.4056
  435DOPC  H15X60019   3.299  10.687   3.559  1.2706  0.2559  0.0618
  435DOPC  H15Y60020   3.406  10.695   3.422  0.8139 -0.6152 -0.9608
  435DOPC  C31660021   3.457  10.533   3.567 -0.2086 -0.0058  0.5369
  435DOPC  H16X60022   3.411  10.441   3.609 -0.9403  0.2314  0.2592
  435DOPC  H16Y60023   3.534  10.488   3.500  0.6139 -1.9522  2.6369
  435DOPC  C31760024   3.521  10.615   3.677 -0.2771 -0.5110 -0.0670
  435DOPC  H17X60025   3.590  10.689   3.630 -1.4411  2.1024  2.0546
  435DOPC  H17Y60026   3.443  10.683   3.718  1.1327  0.3723  1.2541
  435DOPC  C31860027   3.579  10.543   3.798 -0.1539  0.1542  0.3645
  435DOPC  H18X60028   3.635  10.617   3.860 -1.1324  2.8830 -1.8411
  435DOPC  H18Y60029   3.499  10.492   3.856 -0.9984  0.4929 -0.4859
  435DOPC  H18Z60030   3.646  10.456   3.777  0.5384  0.0956  2.4809
  436DOPC     N60031   9.453  10.580   1.520 -0.2433 -1.0830  0.2746
  436DOPC   C1260032   9.328  10.665   1.534 -0.0834  0.2379 -0.0322
  436DOPC  H12A60033   9.280  10.617   1.618 -0.3618 -0.6899 -0.7057
  436DOPC  H12B60034   9.264  10.660   1.447 -0.8621  0.6145  0.5116
  436DOPC   C1360035   9.535  10.593   1.645  0.1475  0.7968 -0.2507
  436DOPC  H13A60036   9.623  10.533   1.631  0.1804  0.7026  0.3727
  436DOPC  H13B60037   9.559  10.696   1.665 -0.8527  0.8924  0.5086
  436DOPC  H13C60038   9.485  10.549   1.730 -0.2970 -3.8550 -2.5943
  436DOPC   C1460039   9.526  10.627   1.398  0.3178  0.4099  0.4183
  436DOPC  H14A60040   9.463  10.648   1.312  0.2428  0.2430  0.4304
  436DOPC  H14B60041   9.570  10.725   1.412 -0.7216  1.3533 -2.2784
  436DOPC  H14C60042   9.599  10.557   1.362 -1.9237 -1.6056 -0.4845
  436DOPC   C1560043   9.421  10.436   1.498  0.6828  0.8838 -0.0073
  436DOPC  H15A60044   9.500  10.363   1.491  0.3641  0.2380  2.2755
  436DOPC  H15B60045   9.375  10.420   1.401  0.7962 -2.2500  0.3477
  436DOPC  H15C60046   9.345  10.394   1.562  2.3768 -2.3840  0.0406
  436DOPC   C1160047   9.335  10.814   1.570  0.4707 -0.4195 -0.5572
  436DOPC  H11A60048   9.402  10.849   1.488  1.4670  1.3574  0.9595
  436DOPC  H11B60049   9.236  10.865   1.564 -0.0358 -1.3462 -0.2324
  436DOPC     P60050   9.327  10.793   1.828 -0.4829 -0.2338 -0.5572
  436DOPC   O1360051   9.261  10.661   1.810 -0.1790 -0.3822 -0.5657
  436DOPC   O1460052   9.238  10.899   1.880 -0.3008  0.1757 -0.2054
  436DOPC   O1260053   9.405  10.833   1.695  0.2685  0.1965  0.3864
  436DOPC   O1160054   9.447  10.770   1.929 -0.3699  0.6687 -0.4203
  436DOPC    C160055   9.559  10.858   1.932  0.0015 -0.4937  0.9262
  436DOPC    HA60056   9.543  10.954   1.877 -0.6648 -1.0265  0.1815
  436DOPC    HB60057   9.650  10.818   1.883 -0.7489  0.4241 -1.3533
  436DOPC    C260058   9.575  10.901   2.078 -0.1262  0.0979 -0.8028
  436DOPC    HS60059   9.647  10.986   2.084  1.3790 -1.1686 -0.0713
  436DOPC   O2160060   9.623  10.789   2.152 -0.4444 -0.0377  0.0324
  436DOPC   C2160061   9.725  10.816   2.235  0.5122  0.1988 -0.4252
  436DOPC   O2260062   9.793  10.916   2.243  0.3830  0.4441 -0.2651
  436DOPC   C2260063   9.765  10.688   2.312  0.3019 -0.1687  0.2356
  436DOPC   H2R60064   9.857  10.651   2.262  1.2580  1.1049  0.9841
  436DOPC   H2S60065   9.688  10.609   2.300  0.7861 -0.5764 -0.2186
  436DOPC    C360066   9.442  10.958   2.147 -0.2737  0.8277  0.3299
  436DOPC    HX60067   9.361  10.881   2.141  1.3520 -1.2656  2.8659
  436DOPC    HY60068   9.401  11.045   2.093 -1.2208  0.2877  0.1549
  436DOPC   O3160069   9.454  10.983   2.288 -0.1046  0.0686  0.0009
  436DOPC   C3160070   9.512  11.100   2.313 -0.0337 -0.2922 -0.6181
  436DOPC   O3260071   9.554  11.176   2.228  0.4296 -0.3761 -0.5271
  436DOPC   C3260072   9.535  11.118   2.460  0.7182  0.7328  0.8078
  436DOPC   H2X60073   9.437  11.145   2.506 -0.4188 -1.1337 -0.3987
  436DOPC   H2Y60074   9.573  11.021   2.498 -0.7653 -0.5082 -0.7419
  436DOPC   C2360075   9.808  10.704   2.463 -0.1585 -0.1288 -0.3430
  436DOPC   H3R60076   9.721  10.759   2.506  0.0620 -0.1549  0.1416
  436DOPC   H3S60077   9.898  10.770   2.461 -2.2250  2.9124 -2.6894
  436DOPC   C2460078   9.841  10.571   2.531 -0.5940  0.4669  0.3255
  436DOPC   H4R60079   9.917  10.511   2.476 -0.6813 -0.3664  1.0917
  436DOPC   H4S60080   9.751  10.507   2.535 -0.6716  0.6071  0.8795
  436DOPC   C2560081   9.883  10.575   2.678  0.3204 -0.4628 -1.0693
  436DOPC   H5R60082   9.837  10.659   2.733  0.3210 -0.2848 -1.3375
  436DOPC   H5S60083   9.991  10.595   2.660 -0.0993  1.8159 -1.3157
  436DOPC   C2660084   9.865  10.456   2.768 -0.3670  0.2859  0.6648
  436DOPC   H6R60085   9.926  10.377   2.720 -2.6945 -1.6545  0.7316
  436DOPC   H6S60086   9.759  10.420   2.771 -0.6323  1.0090  0.3435
  436DOPC   C2760087   9.921  10.481   2.906  0.4291  0.6027  0.7102
  436DOPC   H7R60088  10.025  10.519   2.900  0.0886  1.5307  0.4763
  436DOPC   H7S60089   9.913  10.381   2.954  0.1205  1.5192  2.6599
  436DOPC   C2860090   9.845  10.574   3.000 -0.2506  0.2881  0.0192
  436DOPC   H8R60091   9.851  10.674   2.951 -0.3226  0.7246  0.8871
  436DOPC   H8S60092   9.907  10.591   3.091 -1.2474  1.0765  0.5778
  436DOPC   C2960093   9.702  10.545   3.034 -0.6324 -0.5442  0.6810
  436DOPC   H9R60094   9.641  10.572   2.947  1.2301 -0.7622 -0.7557
  436DOPC  C21060095   9.643  10.518   3.148 -0.0264 -0.2742  0.4459
  436DOPC  H10R60096   9.534  10.504   3.148 -0.0059 -0.4547 -0.0577
  436DOPC  C21160097   9.708  10.506   3.279 -0.2500  0.0871  0.4054
  436DOPC  H11R60098   9.819  10.507   3.268 -0.1348 -2.6612  0.6181
  436DOPC  H11S60099   9.685  10.404   3.319 -1.0692  0.4965  1.0024
  436DOPC  C21260100   9.651  10.613   3.372  0.9403 -0.6812 -0.0853
  436DOPC  H12R60101   9.541  10.624   3.379  1.1000  0.4014  1.6956
  436DOPC  H12S60102   9.686  10.710   3.330  4.3720  0.1091  3.8754
  436DOPC  C21360103   9.706  10.603   3.508 -0.1921 -0.4138 -0.3057
  436DOPC  H13R60104   9.692  10.701   3.559  1.5813  1.6804 -3.4866
  436DOPC  H13S60105   9.814  10.604   3.480 -0.1915 -0.2010 -0.3046
  436DOPC  C21460106   9.659  10.473   3.577 -0.0547 -0.8939  0.4440
  436DOPC  H14R60107   9.734  10.392   3.565  0.6666 -0.5988  2.6331
  436DOPC  H14S60108   9.566  10.446   3.522  0.3206 -2.3013  0.4662
  436DOPC  C21560109   9.637  10.482   3.727 -1.1435 -0.1282 -0.1485
  436DOPC  H15R60110   9.717  10.546   3.770 -0.4898 -2.0074  1.5878
  436DOPC  H15S60111   9.640  10.380   3.771  0.9464  0.4085  1.0779
  436DOPC  C21660112   9.500  10.545   3.755 -0.3503 -0.4836  0.7688
  436DOPC  H16R60113   9.420  10.503   3.690 -2.1827  0.2985  2.3948
  436DOPC  H16S60114   9.506  10.655   3.739  3.7836 -0.7406 -0.4852
  436DOPC  C21760115   9.452  10.518   3.893 -0.0778 -0.2054 -0.2201
  436DOPC  H17R60116   9.450  10.408   3.907 -1.4150 -0.0217  1.4252
  436DOPC  H17S60117   9.347  10.553   3.904 -0.4151 -0.9991 -0.8541
  436DOPC  C21860118   9.533  10.581   4.008  0.8305  0.2860  0.4444
  436DOPC  H18R60119   9.480  10.565   4.105  0.7453 -1.0838  0.2029
  436DOPC  H18S60120   9.535  10.687   3.978 -0.7967  0.1632 -0.2066
  436DOPC  H18T60121   9.639  10.547   4.017  0.1892 -1.6329  1.3457
  436DOPC   C3360122   9.630  11.236   2.488  0.3106 -0.0091  0.0171
  436DOPC   H3X60123   9.594  11.327   2.436  1.3155  1.3816  1.6368
  436DOPC   H3Y60124   9.729  11.209   2.446  0.3088  2.1408 -1.5043
  436DOPC   C3460125   9.634  11.265   2.636 -0.1795 -0.5864 -0.0926
  436DOPC   H4X60126   9.708  11.345   2.659  0.3655 -0.9874 -0.4284
  436DOPC   H4Y60127   9.662  11.170   2.688 -1.8287 -1.3284 -0.4805
  436DOPC   C3560128   9.502  11.292   2.704 -0.2430  0.0939 -0.8853
  436DOPC   H5X60129   9.435  11.204   2.691  0.9139 -1.0227  0.4212
  436DOPC   H5Y60130   9.442  11.382   2.677 -3.0124 -1.4027 -0.1499
  436DOPC   C3660131   9.512  11.303   2.861  0.0283  0.5979  0.1571
  436DOPC   H6X60132   9.410  11.303   2.907  0.4010 -1.4347  1.0819
  436DOPC   H6Y60133   9.569  11.217   2.902 -2.0158 -0.5873  0.6729
  436DOPC   C3760134   9.587  11.436   2.893 -0.1775 -0.0687  0.8236
  436DOPC   H7X60135   9.695  11.415   2.878 -1.2060 -4.2793 -2.5448
  436DOPC   H7Y60136   9.553  11.520   2.828  0.3329 -0.3100  0.2374
  436DOPC   C3860137   9.572  11.491   3.040 -0.4997  0.0332  0.1888
  436DOPC   H8X60138   9.467  11.519   3.063 -0.2969  1.6931 -0.7151
  436DOPC   H8Y60139   9.635  11.582   3.049  1.6524 -1.0421 -2.4842
  436DOPC   C3960140   9.631  11.391   3.137 -0.0873  0.2956 -0.4120
  436DOPC   H9X60141   9.713  11.326   3.102 -0.2162 -0.2447  0.2684
  436DOPC  C31060142   9.603  11.386   3.269 -0.1571  0.1743 -0.0014
  436DOPC  H10X60143   9.658  11.316   3.333  1.2083  1.8855  0.7681
  436DOPC  C31160144   9.502  11.464   3.342  0.1727  0.2499 -0.3476
  436DOPC  H11X60145   9.449  11.525   3.266  0.3811 -0.4845 -1.1008
  436DOPC  H11Y60146   9.546  11.535   3.416  2.2485 -2.4138  1.1471
  436DOPC  C31260147   9.396  11.381   3.416 -0.7435  0.0154  0.5504
  436DOPC  H12X60148   9.440  11.323   3.500 -0.1280 -0.0433  0.1872
  436DOPC  H12Y60149   9.348  11.301   3.356  1.3779 -0.4462 -0.6355
  436DOPC  C31360150   9.292  11.462   3.498  0.2574  0.5989  0.7769
  436DOPC  H13X60151   9.244  11.545   3.442 -0.2110 -0.1987 -0.0167
  436DOPC  H13Y60152   9.204  11.396   3.514  1.5441 -0.9922  1.5520
  436DOPC  C31460153   9.355  11.519   3.621  0.0210  0.1722 -0.7021
  436DOPC  H14X60154   9.414  11.443   3.676 -0.2240 -0.1873 -0.9321
  436DOPC  H14Y60155   9.430  11.597   3.596  2.0200 -1.9834 -1.7985
  436DOPC  C31560156   9.246  11.563   3.726  0.2396  0.7145  0.2462
  436DOPC  H15X60157   9.179  11.476   3.743  2.6258 -1.4133 -0.5434
  436DOPC  H15Y60158   9.199  11.654   3.684  0.5660  0.6186 -0.3410
  436DOPC  C31660159   9.322  11.612   3.849 -0.4482 -0.2217 -0.0043
  436DOPC  H16X60160   9.386  11.526   3.879  0.6050  0.8922  1.0613
  436DOPC  H16Y60161   9.377  11.702   3.816  1.5839 -1.3102  0.2670
  436DOPC  C31760162   9.224  11.634   3.967 -0.4027  0.1330  0.5841
  436DOPC  H17X60163   9.146  11.555   3.980 -1.4401  0.3392 -3.0774
  436DOPC  H17Y60164   9.289  11.632   4.056 -2.1396  0.9643  1.9385
  436DOPC  C31860165   9.160  11.770   3.963  0.4320 -0.3184  0.1034
  436DOPC  H18X60166   9.235  11.853   3.960 -0.4779  0.5066 -0.6553
  436DOPC  H18Y60167   9.102  11.794   3.871 -2.0423  0.6999  1.8077
  436DOPC  H18Z60168   9.091  11.778   4.049 -0.5004 -1.0749 -0.5539
  437DOPC     N60169   1.759   2.870   1.696 -0.1754 -0.0601  0.3701
  437DOPC   C1260170   1.853   2.908   1.810  0.1424  0.5014 -0.4251
  437DOPC  H12A60171   1.897   3.005   1.791  1.3856  0.2930  1.1465
  437DOPC  H12B60172   1.933   2.836   1.807 -1.2147 -1.0458 -0.7455
  437DOPC   C1360173   1.709   2.732   1.705  0.0757  0.2310  0.7006
  437DOPC  H13A60174   1.631   2.713   1.632  1.4790 -0.9564 -0.5500
  437DOPC  H13B60175   1.786   2.660   1.682 -0.9281 -0.4495 -0.6920
  437DOPC  H13C60176   1.663   2.706   1.799 -2.2819 -2.3616 -1.0007
  437DOPC   C1460177   1.825   2.891   1.563  0.6578 -0.4149  0.0110
  437DOPC  H14A60178   1.911   2.827   1.549  0.4386 -1.0943  1.5513
  437DOPC  H14B60179   1.762   2.855   1.483 -1.5121 -0.2663  1.5863
  437DOPC  H14C60180   1.836   2.997   1.542 -4.1541  0.4520  0.6877
  437DOPC   C1560181   1.637   2.969   1.697  0.1779 -0.5000 -1.0883
  437DOPC  H15A60182   1.570   2.942   1.777 -1.9922  0.1686 -2.6038
  437DOPC  H15B60183   1.576   2.950   1.610 -0.4932 -2.9996 -0.1391
  437DOPC  H15C60184   1.667   3.072   1.710  0.7009 -0.9594  2.6149
  437DOPC   C1160185   1.788   2.903   1.948  0.5858  0.7119  0.6922
  437DOPC  H11A60186   1.841   2.953   2.032 -1.2878  2.0959  1.1014
  437DOPC  H11B60187   1.694   2.958   1.967 -0.9179 -1.7557  0.8832
  437DOPC     P60188   1.879   2.658   1.998 -0.1047 -0.0767 -0.0385
  437DOPC   O1360189   2.004   2.716   1.941  0.2629 -0.3537 -0.5419
  437DOPC   O1460190   1.831   2.534   1.933  0.5780  0.2614 -0.6020
  437DOPC   O1260191   1.762   2.764   1.985 -0.0644  0.3319 -0.7262
  437DOPC   O1160192   1.907   2.634   2.149  0.4891 -0.0226 -0.1571
  437DOPC    C160193   1.948   2.731   2.250  0.9674  0.0578 -0.8352
  437DOPC    HA60194   1.859   2.790   2.280 -0.4530 -1.6473 -1.5145
  437DOPC    HB60195   2.029   2.793   2.205  1.1894  1.0715  0.8929
  437DOPC    C260196   2.006   2.670   2.379  0.9212 -0.1067 -0.0046
  437DOPC    HS60197   2.087   2.609   2.334  1.1661 -0.7080  1.2290
  437DOPC   O2160198   1.898   2.607   2.446  0.4138 -0.5137  0.3264
  437DOPC   C2160199   1.924   2.486   2.487  0.4800  0.4722  0.4323
  437DOPC   O2260200   2.032   2.431   2.471 -0.1072  0.0406 -0.3124
  437DOPC   C2260201   1.804   2.419   2.543  0.1059  0.7095 -0.2539
  437DOPC   H2R60202   1.727   2.417   2.463 -0.9024 -0.2571  0.7176
  437DOPC   H2S60203   1.754   2.484   2.617 -1.9388 -1.8395  0.7374
  437DOPC    C360204   2.075   2.773   2.475  0.7130  0.5232  0.3414
  437DOPC    HX60205   2.016   2.867   2.488  0.1857  0.3491 -0.6992
  437DOPC    HY60206   2.171   2.806   2.429  1.3587 -1.0804  0.4880
  437DOPC   O3160207   2.096   2.706   2.602  0.5071 -0.0573 -0.3001
  437DOPC   C3160208   2.197   2.623   2.604 -0.3746 -0.3282  0.1852
  437DOPC   O3260209   2.282   2.613   2.519  0.0065  0.7186  0.1097
  437DOPC   C3260210   2.198   2.542   2.728 -0.9219  0.7434  0.1134
  437DOPC   H2X60211   2.096   2.527   2.768 -0.4642  0.8521  1.3536
  437DOPC   H2Y60212   2.224   2.436   2.707 -0.4859  0.7618  0.5274
  437DOPC   C2360213   1.817   2.282   2.602  0.3630 -0.2680  0.3790
  437DOPC   H3R60214   1.858   2.213   2.525  2.1066 -0.0834  1.0990
  437DOPC   H3S60215   1.715   2.249   2.632 -0.6708 -0.0798 -2.5835
  437DOPC   C2460216   1.910   2.276   2.724  0.2878 -0.0735 -0.1121
  437DOPC   H4R60217   2.008   2.323   2.699 -0.2749  0.5011 -1.3093
  437DOPC   H4S60218   1.935   2.169   2.744  0.1141 -0.3033 -1.0889
  437DOPC   C2560219   1.862   2.333   2.854  0.3797  0.3025 -0.7215
  437DOPC   H5R60220   1.752   2.321   2.868  0.6796 -0.1615  1.8795
  437DOPC   H5S60221   1.878   2.443   2.853 -1.0548  0.5722  0.6474
  437DOPC   C2660222   1.931   2.270   2.979  0.2090  0.2603  0.1215
  437DOPC   H6R60223   2.038   2.302   2.979 -0.0587  1.1685 -0.3072
  437DOPC   H6S60224   1.921   2.160   2.967 -0.7544  0.2008  1.2542
  437DOPC   C2760225   1.867   2.309   3.108 -0.3291 -0.1253  0.1576
  437DOPC   H7R60226   1.766   2.266   3.092  0.1042 -1.0130 -0.2727
  437DOPC   H7S60227   1.858   2.419   3.119 -1.0313 -0.2211  0.6378
  437DOPC   C2860228   1.943   2.252   3.230 -0.2795  0.0136 -0.2222
  437DOPC   H8R60229   1.951   2.141   3.237 -0.0909  0.0748  0.7428
  437DOPC   H8S60230   1.884   2.279   3.321 -1.0443 -2.1059 -0.0389
  437DOPC   C2960231   2.075   2.320   3.241 -0.7806  0.0023  0.5183
  437DOPC   H9R60232   2.132   2.335   3.148 -0.5481 -3.1196  0.0617
  437DOPC  C21060233   2.139   2.361   3.351  0.3268  0.1195  0.3672
  437DOPC  H10R60234   2.220   2.435   3.338  0.4991 -0.2107 -0.5572
  437DOPC  C21160235   2.090   2.345   3.490 -0.5071 -0.4751 -0.4926
  437DOPC  H11R60236   1.984   2.379   3.491 -0.0966  0.8658 -0.5272
  437DOPC  H11S60237   2.144   2.410   3.562 -2.3952 -0.4423  0.9699
  437DOPC  C21260238   2.080   2.196   3.541 -0.0812 -0.5601  0.0771
  437DOPC  H12R60239   2.004   2.145   3.478  0.9303 -2.4819  0.3164
  437DOPC  H12S60240   2.044   2.186   3.645  0.2653 -1.5566  0.1133
  437DOPC  C21360241   2.207   2.112   3.525  1.1556  0.2726  0.5694
  437DOPC  H13R60242   2.232   2.120   3.416 -0.8181  0.9439  0.1273
  437DOPC  H13S60243   2.192   2.005   3.552 -1.7279  0.5730  0.4833
  437DOPC  C21460244   2.329   2.172   3.597 -0.5237  0.6317 -0.8254
  437DOPC  H14R60245   2.356   2.276   3.566  5.6525  0.0622  1.3091
  437DOPC  H14S60246   2.416   2.105   3.584 -0.7523 -0.0065  0.7653
  437DOPC  C21560247   2.309   2.194   3.753 -0.0002  0.7610 -0.0629
  437DOPC  H15R60248   2.288   2.095   3.799  0.3016  0.0918 -1.3399
  437DOPC  H15S60249   2.216   2.252   3.775 -1.1591 -1.2101  0.4672
  437DOPC  C21660250   2.422   2.261   3.827  0.2258 -0.0036  0.3254
  437DOPC  H16R60251   2.374   2.303   3.918  0.1177 -0.2657  0.3890
  437DOPC  H16S60252   2.456   2.350   3.770 -0.8068  0.3989  0.3104
  437DOPC  C21760253   2.543   2.170   3.867  0.1328 -0.3824  0.8188
  437DOPC  H17R60254   2.582   2.133   3.770  1.5553  1.4233  0.6342
  437DOPC  H17S60255   2.506   2.079   3.918  0.3064 -1.5184 -0.9822
  437DOPC  C21860256   2.659   2.240   3.941  0.2814  1.1275 -0.1702
  437DOPC  H18R60257   2.753   2.182   3.926  0.3538  0.7134  1.6619
  437DOPC  H18S60258   2.624   2.241   4.046  0.2250 -0.8969 -0.1159
  437DOPC  H18T60259   2.661   2.346   3.908  0.0526  1.1701 -0.0455
  437DOPC   C3360260   2.295   2.609   2.830  0.2545 -0.1116 -0.7031
  437DOPC   H3X60261   2.253   2.709   2.851  0.4090 -0.4373  1.3155
  437DOPC   H3Y60262   2.394   2.631   2.784  0.5642 -2.7037 -1.4343
  437DOPC   C3460263   2.317   2.531   2.960 -0.1390  0.2635 -0.5113
  437DOPC   H4X60264   2.374   2.437   2.945 -0.8178 -0.3847  0.8579
  437DOPC   H4Y60265   2.215   2.516   3.002  0.3813 -0.3318  0.5756
  437DOPC   C3560266   2.404   2.611   3.064 -0.6007  0.6456 -0.3854
  437DOPC   H5X60267   2.330   2.685   3.101 -1.0983  1.5981 -3.0095
  437DOPC   H5Y60268   2.493   2.655   3.013 -0.2453  0.3530 -0.0270
  437DOPC   C3660269   2.460   2.523   3.175  0.2897  0.3390 -0.4886
  437DOPC   H6X60270   2.384   2.449   3.209 -0.7991 -0.2385 -3.8328
  437DOPC   H6Y60271   2.548   2.467   3.135  0.8711  0.3967  0.6583
  437DOPC   C3760272   2.531   2.602   3.290  0.4154  0.6471  0.1057
  437DOPC   H7X60273   2.628   2.650   3.265  0.6629  0.0843 -0.0285
  437DOPC   H7Y60274   2.466   2.691   3.303  0.4247  0.8413 -1.0713
  437DOPC   C3860275   2.546   2.514   3.408  0.0555 -0.8720  0.2982
  437DOPC   H8X60276   2.632   2.443   3.397  1.0586 -0.0356  2.1497
  437DOPC   H8Y60277   2.453   2.455   3.417  0.9254 -2.3582  0.0023
  437DOPC   C3960278   2.567   2.590   3.537  0.2847  0.2739  0.4334
  437DOPC   H9X60279   2.478   2.632   3.585  1.5184  2.5499  0.8417
  437DOPC  C31060280   2.684   2.580   3.607  0.0354  0.4690 -0.4088
  437DOPC  H10X60281   2.687   2.632   3.704 -0.9151 -0.6226  0.2190
  437DOPC  C31160282   2.814   2.529   3.548 -0.2363 -0.2482  0.1054
  437DOPC  H11X60283   2.904   2.590   3.571  2.1462 -3.0160 -1.1918
  437DOPC  H11Y60284   2.826   2.545   3.438  0.6157  1.1240  0.3792
  437DOPC  C31260285   2.847   2.388   3.597  0.2026  0.0920 -0.6317
  437DOPC  H12X60286   2.765   2.323   3.560  1.0770 -1.3181 -0.1601
  437DOPC  H12Y60287   2.819   2.392   3.704  0.9990 -0.8192 -0.3746
  437DOPC  C31360288   2.986   2.346   3.565 -0.1107 -0.1037 -0.0935
  437DOPC  H13X60289   3.004   2.356   3.456  0.5112 -2.1608 -0.2291
  437DOPC  H13Y60290   3.063   2.411   3.613  0.4444 -0.0542 -1.0336
  437DOPC  C31460291   3.012   2.204   3.615  0.5475  0.0559 -0.3814
  437DOPC  H14X60292   2.989   2.194   3.723  0.2730 -4.1097 -0.6639
  437DOPC  H14Y60293   2.933   2.141   3.570 -0.6961  1.7344 -0.6331
  437DOPC  C31560294   3.155   2.150   3.588  1.0108 -0.4524  0.4772
  437DOPC  H15X60295   3.232   2.216   3.631  2.0390 -1.7082  0.6358
  437DOPC  H15Y60296   3.162   2.155   3.477 -1.0103  0.2797  0.3419
  437DOPC  C31660297   3.167   2.009   3.634  0.3547 -0.6224  1.0716
  437DOPC  H16X60298   3.153   1.998   3.743  0.3582  1.2258  1.2784
  437DOPC  H16Y60299   3.084   1.950   3.588 -0.0001  0.7482 -0.1174
  437DOPC  C31760300   3.291   1.927   3.606  0.8916 -0.0033 -0.7864
  437DOPC  H17X60301   3.282   1.908   3.497 -3.1321  1.1712 -0.8169
  437DOPC  H17Y60302   3.377   1.995   3.625 -0.6839  2.7674 -2.8443
  437DOPC  C31860303   3.293   1.788   3.692  0.2282  0.3770  0.1702
  437DOPC  H18X60304   3.192   1.745   3.676 -0.2389  1.4493  0.1408
  437DOPC  H18Y60305   3.361   1.718   3.641 -0.9809 -1.0354  0.4336
  437DOPC  H18Z60306   3.313   1.814   3.798  1.1344  4.7361 -0.8480
  438DOPC     N60307  11.549  12.021   1.570 -1.1144 -0.4129  0.5766
  438DOPC   C1260308  11.529  11.998   1.716 -0.4521  0.0309 -0.1528
  438DOPC  H12A60309  11.556  12.087   1.771 -1.4715 -0.0940  0.5749
  438DOPC  H12B60310  11.597  11.921   1.750  0.6562  0.5070 -1.1859
  438DOPC   C1360311  11.700  12.009   1.547 -0.6464  0.0507  0.1254
  438DOPC  H13A60312  11.752  12.095   1.588  0.4597  0.7967 -2.6408
  438DOPC  H13B60313  11.741  11.918   1.587 -1.2783 -1.5636 -2.6529
  438DOPC  H13C60314  11.733  12.012   1.445  4.5481  4.6525  1.4123
  438DOPC   C1460315  11.497  12.155   1.537 -0.2296  0.1638 -0.0114
  438DOPC  H14A60316  11.539  12.236   1.594  1.0007  1.3664 -2.4442
  438DOPC  H14B60317  11.521  12.177   1.434 -0.5753  1.3121  0.1467
  438DOPC  H14C60318  11.390  12.162   1.548  0.0060  1.6413  1.7126
  438DOPC   C1560319  11.481  11.922   1.482 -0.2709  0.2297 -0.6658
  438DOPC  H15A60320  11.536  11.829   1.470  0.9050  0.8109  0.0012
  438DOPC  H15B60321  11.482  11.964   1.382  0.6679  3.5087  0.6108
  438DOPC  H15C60322  11.383  11.903   1.524 -0.9991 -1.2960 -2.8617
  438DOPC   C1160323  11.388  11.951   1.758  0.0835 -0.2553  0.3394
  438DOPC  H11A60324  11.374  11.846   1.724  2.6427 -0.3036 -0.7861
  438DOPC  H11B60325  11.382  11.953   1.869 -0.6430  2.0281  0.2903
  438DOPC     P60326  11.207  12.144   1.786 -0.2999 -0.5692  0.0556
  438DOPC   O1360327  11.096  12.201   1.706  0.0698  0.1118 -0.0667
  438DOPC   O1460328  11.306  12.237   1.840 -0.1942  0.2957  0.2941
  438DOPC   O1260329  11.287  12.035   1.698  0.2220  0.5840  0.0631
  438DOPC   O1160330  11.138  12.076   1.903 -0.0409 -0.6713 -0.4755
  438DOPC    C160331  11.067  11.959   1.881 -0.3380  0.7045  0.7152
  438DOPC    HA60332  11.140  11.875   1.874  0.0728  1.1551 -0.6875
  438DOPC    HB60333  11.002  11.962   1.791  1.2066 -0.8605 -0.5362
  438DOPC    C260334  10.972  11.943   2.003  0.2151  0.1661 -0.0867
  438DOPC    HS60335  10.933  11.839   1.995  2.2133 -0.7169  0.7910
  438DOPC   O2160336  10.865  12.042   1.999  0.3541 -0.0588  0.6385
  438DOPC   C2160337  10.766  12.007   1.915  0.9320  1.1957 -0.2204
  438DOPC   O2260338  10.769  11.919   1.836  0.2855  0.9087  0.0753
  438DOPC   C2260339  10.648  12.105   1.933 -0.0755  0.0008 -0.2925
  438DOPC   H2R60340  10.643  12.152   1.833  2.6186 -1.3866 -1.1897
  438DOPC   H2S60341  10.675  12.182   2.008  0.4107 -0.1652 -0.2908
  438DOPC    C360342  11.049  11.955   2.138  0.2792  0.0203  0.5292
  438DOPC    HX60343  11.074  12.062   2.153  1.5310 -0.4760  2.3740
  438DOPC    HY60344  11.149  11.909   2.148  0.4865  0.5069  0.7029
  438DOPC   O3160345  10.966  11.917   2.243 -0.8198 -0.7430 -0.5009
  438DOPC   C3160346  10.964  11.782   2.268  0.4109  0.0145  0.2444
  438DOPC   O3260347  11.027  11.698   2.202 -0.4249 -0.9227 -0.9353
  438DOPC   C3260348  10.843  11.750   2.361  0.0361  0.6019 -0.2503
  438DOPC   H2X60349  10.824  11.823   2.442 -0.4240  0.3766 -0.1550
  438DOPC   H2Y60350  10.755  11.742   2.295  0.4461 -0.7742 -0.6644
  438DOPC   C2360351  10.509  12.030   1.965  0.4026 -0.1868  0.3805
  438DOPC   H3R60352  10.492  11.945   1.895  2.3690  0.9315 -1.5942
  438DOPC   H3S60353  10.420  12.095   1.956  0.9364  0.2413 -3.4907
  438DOPC   C2460354  10.514  11.979   2.114 -0.7995 -0.1348 -0.4545
  438DOPC   H4R60355  10.519  12.076   2.167  2.2658 -0.4367  0.0272
  438DOPC   H4S60356  10.614  11.939   2.140 -0.7962  0.1611 -0.0111
  438DOPC   C2560357  10.388  11.901   2.153 -0.2507  0.4311  0.1513
  438DOPC   H5R60358  10.365  11.807   2.100  0.9937 -0.2333  0.7452
  438DOPC   H5S60359  10.306  11.975   2.141  0.3624  1.1447  0.2800
  438DOPC   C2660360  10.397  11.859   2.303 -0.2484  0.0586  0.4155
  438DOPC   H6R60361  10.426  11.942   2.371 -0.0273  0.5044 -0.2063
  438DOPC   H6S60362  10.479  11.784   2.302 -1.8132 -1.7536 -1.5445
  438DOPC   C2760363  10.274  11.787   2.355  0.6049 -0.5500 -0.3179
  438DOPC   H7R60364  10.274  11.687   2.306  0.3305 -0.0451 -1.3676
  438DOPC   H7S60365  10.182  11.846   2.336 -0.3427 -2.0709 -0.6868
  438DOPC   C2860366  10.284  11.744   2.508  0.4628  0.8201 -0.8246
  438DOPC   H8R60367  10.188  11.696   2.535  1.3157 -0.6215 -0.2639
  438DOPC   H8S60368  10.301  11.831   2.575  1.5779 -0.4958  0.6638
  438DOPC   C2960369  10.388  11.643   2.540  0.0073  0.4954  0.6012
  438DOPC   H9R60370  10.414  11.576   2.457 -0.5524  1.1447 -0.1084
  438DOPC  C21060371  10.457  11.636   2.656  0.1777  0.5408  0.4206
  438DOPC  H10R60372  10.530  11.553   2.664 -2.2373 -1.9061 -1.0669
  438DOPC  C21160373  10.437  11.725   2.772  0.8476  0.2139  0.0017
  438DOPC  H11R60374  10.422  11.662   2.862 -0.6740  1.0169  0.3427
  438DOPC  H11S60375  10.343  11.785   2.778 -0.3474 -1.4984 -0.6305
  438DOPC  C21260376  10.554  11.820   2.805 -0.3021  0.5732 -0.2237
  438DOPC  H12R60377  10.646  11.757   2.799 -1.4344 -1.2495  0.7405
  438DOPC  H12S60378  10.535  11.859   2.907 -0.2307  1.3503 -0.4955
  438DOPC  C21360379  10.553  11.940   2.705  0.4620  0.0911 -0.2073
  438DOPC  H13R60380  10.455  11.992   2.704 -0.8016 -2.1667 -1.8317
  438DOPC  H13S60381  10.564  11.903   2.601  0.1877  0.1574 -0.2602
  438DOPC  C21460382  10.665  12.044   2.733 -0.4763  0.2121  0.4667
  438DOPC  H14R60383  10.762  12.002   2.700 -0.3057  0.6914  0.3507
  438DOPC  H14S60384  10.673  12.066   2.842  2.5364 -1.4965  0.6880
  438DOPC  C21560385  10.644  12.178   2.656  0.5417  0.2659  0.0482
  438DOPC  H15R60386  10.723  12.253   2.679 -1.3751  1.9219  1.7012
  438DOPC  H15S60387  10.551  12.224   2.696 -0.1522 -1.3706  0.4098
  438DOPC  C21660388  10.620  12.163   2.503 -0.5369 -0.1322 -0.0720
  438DOPC  H16R60389  10.525  12.109   2.485 -1.1108  0.9949 -0.5367
  438DOPC  H16S60390  10.691  12.093   2.454 -0.6006 -0.4959  0.3463
  438DOPC  C21760391  10.604  12.302   2.442 -0.3489  0.1979 -0.2874
  438DOPC  H17R60392  10.676  12.373   2.487 -2.2755  0.9466  1.7822
  438DOPC  H17S60393  10.518  12.368   2.463  1.7469  2.3342  2.4722
  438DOPC  C21860394  10.619  12.300   2.292  0.4566 -0.1363  0.4665
  438DOPC  H18R60395  10.665  12.211   2.245 -1.2476  0.2351 -2.0593
  438DOPC  H18S60396  10.660  12.398   2.260 -1.4670  0.6010  0.1561
  438DOPC  H18T60397  10.515  12.300   2.253  1.2872 -0.5884 -1.9147
  438DOPC   C3360398  10.857  11.609   2.429  0.1262  0.4111  0.7727
  438DOPC   H3X60399  10.873  11.528   2.355  1.3236  2.3418 -1.2079
  438DOPC   H3Y60400  10.772  11.583   2.496  0.1836  0.5819  0.9140
  438DOPC   C3460401  10.982  11.605   2.519 -0.4439 -0.0971 -0.4947
  438DOPC   H4X60402  11.002  11.709   2.552  1.7921 -0.3814 -0.7781
  438DOPC   H4Y60403  11.062  11.568   2.451 -3.3261 -3.9005 -2.2322
  438DOPC   C3560404  10.974  11.522   2.644  0.1008  0.6095  0.0965
  438DOPC   H5X60405  10.955  11.418   2.610  1.7688  0.8172 -1.6909
  438DOPC   H5Y60406  10.897  11.555   2.716 -0.2361 -2.2937  1.1955
  438DOPC   C3660407  11.110  11.533   2.716 -0.6187 -0.4528 -0.5982
  438DOPC   H6X60408  11.183  11.488   2.646  1.1183 -1.2467  1.5978
  438DOPC   H6Y60409  11.140  11.638   2.741 -1.4625 -0.2517 -0.3929
  438DOPC   C3760410  11.123  11.439   2.843  0.9633 -0.5704  0.2405
  438DOPC   H7X60411  11.090  11.339   2.806  3.8702 -1.2475 -0.7949
  438DOPC   H7Y60412  11.226  11.427   2.883  0.5695 -1.3463  1.0641
  438DOPC   C3860413  11.041  11.483   2.954  0.4313  0.3816 -0.0555
  438DOPC   H8X60414  10.950  11.539   2.923 -1.6495 -0.9941  3.0268
  438DOPC   H8Y60415  11.100  11.562   3.005 -1.1783  0.6288  1.5036
  438DOPC   C3960416  11.000  11.369   3.038  0.3790 -0.0373 -0.2495
  438DOPC   H9X60417  10.932  11.305   2.980 -0.0056  0.5612 -0.4559
  438DOPC  C31060418  11.037  11.335   3.159 -0.0020 -0.0716  0.2530
  438DOPC  H10X60419  11.002  11.235   3.186  1.7160 -1.2500 -1.6524
  438DOPC  C31160420  11.130  11.396   3.253 -0.4553 -0.4584 -0.0877
  438DOPC  H11X60421  11.168  11.491   3.211 -0.8431  0.4883  1.6128
  438DOPC  H11Y60422  11.217  11.328   3.269  0.1609  0.5216  0.8137
  438DOPC  C31260423  11.070  11.419   3.396  0.2589  0.4855  0.0734
  438DOPC  H12X60424  10.962  11.438   3.411  0.3867  0.6182  0.9032
  438DOPC  H12Y60425  11.129  11.507   3.429 -1.5160  1.3321  1.1293
  438DOPC  C31360426  11.113  11.301   3.490 -0.4142  0.2836  0.3313
  438DOPC  H13X60427  11.064  11.207   3.458 -0.8459  0.7192 -0.2902
  438DOPC  H13Y60428  11.222  11.291   3.468 -0.1593  1.3119  1.0374
  438DOPC  C31460429  11.109  11.333   3.640 -0.0316  0.1623  0.5373
  438DOPC  H14X60430  11.128  11.437   3.673 -2.1645  0.7507  0.0866
  438DOPC  H14Y60431  11.003  11.317   3.670 -0.8985  0.8343 -1.8995
  438DOPC  C31560432  11.186  11.229   3.720 -0.5558 -0.6653  0.2241
  438DOPC  H15X60433  11.293  11.217   3.693 -0.3978 -0.3825  0.7144
  438DOPC  H15Y60434  11.133  11.134   3.695 -1.0118  0.5573 -4.5001
  438DOPC  C31660435  11.185  11.270   3.868 -0.3011 -0.4580 -0.2099
  438DOPC  H16X60436  11.242  11.362   3.892 -1.1165 -0.4277  1.8067
  438DOPC  H16Y60437  11.079  11.295   3.893 -0.3132  0.0184 -0.7318
  438DOPC  C31760438  11.237  11.155   3.961  0.0602 -0.0711 -0.3810
  438DOPC  H17X60439  11.179  11.147   4.054  0.4022  0.5538 -0.1032
  438DOPC  H17Y60440  11.219  11.063   3.901 -0.8883 -0.4903  0.5194
  438DOPC  C31860441  11.390  11.169   3.989 -0.0176 -0.5593  0.6563
  438DOPC  H18X60442  11.418  11.253   4.055 -0.2889  1.4259 -1.6037
  438DOPC  H18Y60443  11.422  11.066   4.016  1.2758 -0.3223  0.1290
  438DOPC  H18Z60444  11.444  11.187   3.893 -0.4557 -0.2136  0.4708
  439DOPC     N60445   1.084  10.790   1.811  0.0369  1.1596  0.2187
  439DOPC   C1260446   0.993  10.847   1.923 -0.0312 -0.1802  0.3896
  439DOPC  H12A60447   0.924  10.767   1.943  0.3323 -0.6244 -0.1120
  439DOPC  H12B60448   0.937  10.929   1.880  0.1680  0.1288  0.7053
  439DOPC   C1360449   1.155  10.662   1.845 -0.3252 -0.4443 -0.4056
  439DOPC  H13A60450   1.083  10.582   1.855 -1.8149  0.9829  0.8890
  439DOPC  H13B60451   1.221  10.640   1.762 -2.1347 -0.6841 -1.8598
  439DOPC  H13C60452   1.207  10.671   1.939 -0.2373 -1.5813 -0.3303
  439DOPC   C1460453   1.201  10.886   1.784 -0.3520  0.6569 -0.4832
  439DOPC  H14A60454   1.266  10.847   1.707  2.0135  1.1039  1.1739
  439DOPC  H14B60455   1.163  10.981   1.750  0.7169  0.7966 -1.3229
  439DOPC  H14C60456   1.251  10.906   1.878 -3.4448 -1.4263  1.7954
  439DOPC   C1560457   1.015  10.780   1.682  0.4156 -0.4649 -0.8953
  439DOPC  H15A60458   1.086  10.781   1.601  1.6968  1.3225  0.1938
  439DOPC  H15B60459   0.949  10.864   1.668 -0.3673 -0.8137  0.5580
  439DOPC  H15C60460   0.949  10.695   1.690 -0.3417  0.3351  2.9886
  439DOPC   C1160461   1.052  10.886   2.059 -0.5375  0.4076 -0.0542
  439DOPC  H11A60462   1.131  10.964   2.056  0.8963 -0.8932  1.6637
  439DOPC  H11B60463   0.974  10.926   2.128 -1.2635 -1.8898  0.5526
  439DOPC     P60464   1.043  10.658   2.174  0.2791  0.2727  0.4951
  439DOPC   O1360465   1.129  10.538   2.189 -0.1878 -0.2716  0.6738
  439DOPC   O1460466   0.902  10.643   2.118 -0.7762 -0.1432 -0.4437
  439DOPC   O1260467   1.122  10.774   2.111  0.1283 -0.2605 -0.0117
  439DOPC   O1160468   1.012  10.719   2.315  0.1674  0.3113 -0.0231
  439DOPC    C160469   1.119  10.743   2.409  0.0241 -0.1810 -0.0004
  439DOPC    HA60470   1.179  10.829   2.373 -1.5110  0.0471 -2.1433
  439DOPC    HB60471   1.200  10.667   2.413  1.7705  1.6101  0.4093
  439DOPC    C260472   1.062  10.749   2.555 -0.8616 -0.8217  0.2609
  439DOPC    HS60473   1.016  10.649   2.569  1.3033 -1.9204 -0.0624
  439DOPC   O2160474   0.966  10.853   2.569  0.1954 -0.0248  0.2237
  439DOPC   C2160475   0.869  10.817   2.651 -0.1452  0.2530 -0.1129
  439DOPC   O2260476   0.858  10.716   2.717  0.5219 -1.0119  0.1222
  439DOPC   C2260477   0.766  10.925   2.640 -0.1261  0.4074 -0.0439
  439DOPC   H2R60478   0.728  10.931   2.536  0.4511  0.5547 -0.2505
  439DOPC   H2S60479   0.816  11.022   2.661  0.9931  0.1053 -1.1772
  439DOPC    C360480   1.180  10.778   2.660  0.1847  0.1880 -0.0105
  439DOPC    HX60481   1.201  10.887   2.656 -1.7459  0.7254  2.2352
  439DOPC    HY60482   1.271  10.726   2.624  1.5068  1.9630  0.6407
  439DOPC   O3160483   1.150  10.752   2.800 -0.0563  0.1453  0.1944
  439DOPC   C3160484   1.165  10.625   2.833 -0.5742 -0.0190 -0.7300
  439DOPC   O3260485   1.224  10.548   2.763  0.0338 -0.0177  0.0146
  439DOPC   C3260486   1.090  10.591   2.961  0.1747 -0.0620 -0.1158
  439DOPC   H2X60487   1.119  10.668   3.036 -2.6841 -0.5950  1.6934
  439DOPC   H2Y60488   0.985  10.615   2.934  0.1006 -0.7534 -0.4911
  439DOPC   C2360489   0.646  10.903   2.736 -0.1271 -0.1921 -0.1202
  439DOPC   H3R60490   0.665  10.948   2.836  1.3089  4.3244 -2.1483
  439DOPC   H3S60491   0.615  10.797   2.738 -0.4940 -0.0813  1.1939
  439DOPC   C2460492   0.528  10.984   2.683  0.5494 -0.7153 -0.0338
  439DOPC   H4R60493   0.499  10.952   2.581  2.8149 -0.0664 -0.9601
  439DOPC   H4S60494   0.553  11.092   2.693 -2.0712 -0.0927  0.4380
  439DOPC   C2560495   0.403  10.958   2.770  0.3373  0.2520 -0.3834
  439DOPC   H5R60496   0.445  10.916   2.864  0.7601 -0.1468 -0.7470
  439DOPC   H5S60497   0.338  10.877   2.730 -0.3357 -0.0931  1.3181
  439DOPC   C2660498   0.320  11.082   2.798  0.7454  0.4377  0.6569
  439DOPC   H6R60499   0.386  11.154   2.852  0.0017  1.0889  0.7208
  439DOPC   H6S60500   0.236  11.067   2.869 -2.0683 -0.8474 -2.6797
  439DOPC   C2760501   0.250  11.141   2.672  0.3673  0.5846 -0.3268
  439DOPC   H7R60502   0.186  11.073   2.612  0.4670  1.1761 -1.1291
  439DOPC   H7S60503   0.341  11.152   2.609  0.9335  1.5327  0.6192
  439DOPC   C2860504   0.203  11.285   2.691 -1.0603  0.3301 -0.1160
  439DOPC   H8R60505   0.221  11.339   2.596 -0.5340  1.1463  0.4363
  439DOPC   H8S60506   0.272  11.326   2.769 -0.3481 -1.6877  0.3766
  439DOPC   C2960507   0.062  11.285   2.713 -0.0773  0.0571  0.0705
  439DOPC   H9R60508   0.000  11.248   2.630  0.0208  0.9906 -0.4368
  439DOPC  C21060509   0.003  11.297   2.828  0.2918  0.4202  0.3419
  439DOPC  H10R60510  -0.107  11.288   2.836  0.2406  0.4622 -0.2719
  439DOPC  C21160511   0.064  11.334   2.959 -0.5074  0.9914  0.3111
  439DOPC  H11R60512   0.033  11.437   2.988  0.8704  1.9400 -1.3813
  439DOPC  H11S60513   0.175  11.330   2.952 -0.6013 -0.7258 -0.7655
  439DOPC  C21260514   0.027  11.236   3.069  0.4135  0.3636 -0.3330
  439DOPC  H12R60515   0.059  11.137   3.032  0.2787  0.4807 -0.7781
  439DOPC  H12S60516  -0.081  11.229   3.095  1.1048 -0.0898  2.7592
  439DOPC  C21360517   0.102  11.259   3.202 -0.6897 -0.7303 -0.0012
  439DOPC  H13R60518   0.211  11.271   3.181 -1.0745  1.8508 -0.8818
  439DOPC  H13S60519   0.078  11.168   3.262 -0.6848  0.8268  2.4731
  439DOPC  C21460520   0.064  11.385   3.282 -0.7807 -0.6580 -0.1199
  439DOPC  H14R60521  -0.045  11.407   3.294 -0.4130  0.3832  1.7228
  439DOPC  H14S60522   0.105  11.472   3.226 -2.9664  1.8548  1.8826
  439DOPC  C21560523   0.118  11.392   3.426  0.0202 -0.0232 -0.8558
  439DOPC  H15R60524   0.227  11.372   3.429 -0.0249 -0.1596  1.9422
  439DOPC  H15S60525   0.075  11.314   3.492 -0.9234  1.2429  0.0652
  439DOPC  C21660526   0.077  11.524   3.497  0.0126  0.4502 -0.3140
  439DOPC  H16R60527   0.140  11.608   3.460  1.2697 -0.8397 -1.1993
  439DOPC  H16S60528   0.110  11.501   3.600  1.7917 -1.2396 -1.2032
  439DOPC  C21760529  -0.072  11.573   3.508 -0.4938  0.3037  0.9880
  439DOPC  H17R60530  -0.127  11.592   3.413 -1.4417 -2.7648  0.7952
  439DOPC  H17S60531  -0.051  11.671   3.555 -2.0826  1.8351 -1.3193
  439DOPC  C21860532  -0.153  11.485   3.603  0.1791 -0.5925 -0.7661
  439DOPC  H18R60533  -0.091  11.468   3.693  0.4895 -1.5576 -1.1402
  439DOPC  H18S60534  -0.184  11.389   3.554 -1.5627  0.3897 -1.6962
  439DOPC  H18T60535  -0.245  11.541   3.630 -0.7122 -1.1744 -2.3941
  439DOPC   C3360536   1.123  10.454   3.021 -0.0052  0.1989  0.4539
  439DOPC   H3X60537   1.119  10.377   2.941  0.8782  1.5948 -1.0037
  439DOPC   H3Y60538   1.048  10.427   3.098  0.4779  0.9158  1.1838
  439DOPC   C3460539   1.262  10.447   3.087  0.0281  0.4354 -0.6920
  439DOPC   H4X60540   1.259  10.518   3.173 -2.0993  0.9451 -1.1143
  439DOPC   H4Y60541   1.341  10.481   3.016 -1.6164 -0.8719 -3.3192
  439DOPC   C3560542   1.282  10.301   3.137 -0.0868  0.5139 -0.0223
  439DOPC   H5X60543   1.305  10.231   3.053 -0.2613 -1.4987  1.5367
  439DOPC   H5Y60544   1.192  10.266   3.192 -1.6738  0.0916 -2.6728
  439DOPC   C3660545   1.414  10.285   3.226  0.2933  0.6479  0.4313
  439DOPC   H6X60546   1.448  10.182   3.246 -0.0111 -0.1112 -2.4805
  439DOPC   H6Y60547   1.491  10.323   3.156 -1.1481  0.6792 -1.2321
  439DOPC   C3760548   1.419  10.356   3.364  0.4680  0.5026 -0.0656
  439DOPC   H7X60549   1.417  10.465   3.344  2.8517  0.9871  1.8961
  439DOPC   H7Y60550   1.337  10.321   3.431  1.9210 -1.6281  0.6776
  439DOPC   C3860551   1.554  10.327   3.420 -0.1955  0.3288 -0.2078
  439DOPC   H8X60552   1.618  10.354   3.333 -1.8418  0.9346 -1.2658
  439DOPC   H8Y60553   1.562  10.219   3.445 -1.0082 -0.0151 -1.3525
  439DOPC   C3960554   1.586  10.413   3.541 -0.2801  0.4839 -0.1818
  439DOPC   H9X60555   1.502  10.482   3.559 -0.6349  0.4136 -1.5022
  439DOPC  C31060556   1.681  10.396   3.632 -0.1048 -0.2625 -0.4118
  439DOPC  H10X60557   1.676  10.450   3.728 -2.9097  0.5572 -0.9451
  439DOPC  C31160558   1.795  10.295   3.631 -0.7752 -0.5264 -0.3885
  439DOPC  H11X60559   1.839  10.293   3.529  0.4092 -0.0304  0.0936
  439DOPC  H11Y60560   1.751  10.195   3.652  1.6456 -1.6808 -0.5014
  439DOPC  C31260561   1.908  10.323   3.737  0.1040 -0.0941  0.2531
  439DOPC  H12X60562   1.853  10.330   3.834  1.0033  1.0917  0.6893
  439DOPC  H12Y60563   1.961  10.415   3.706  0.1224  0.6331  2.2530
  439DOPC  C31360564   2.015  10.213   3.745  0.4051  0.2546  0.2699
  439DOPC  H13X60565   1.965  10.115   3.763  0.1976 -0.0453 -1.7170
  439DOPC  H13Y60566   2.060  10.204   3.644  1.9684 -0.2265  0.9875
  439DOPC  C31460567   2.123  10.257   3.842 -0.4637 -0.2096  0.1127
  439DOPC  H14X60568   2.209  10.187   3.835 -0.0444  0.1587  1.2885
  439DOPC  H14Y60569   2.147  10.362   3.817  0.6380 -0.2902  0.7579
  439DOPC  C31560570   2.084  10.255   3.990  0.8342  0.1929  0.0169
  439DOPC  H15X60571   2.046  10.154   4.015 -0.5769  1.0965  1.8406
  439DOPC  H15Y60572   2.016  10.342   4.006  0.5497  0.4414 -2.2771
  439DOPC  C31660573   2.204  10.274   4.082 -0.2819 -0.3332  0.3119
  439DOPC  H16X60574   2.281  10.197   4.061  0.5986  0.1253  1.7853
  439DOPC  H16Y60575   2.243  10.375   4.057 -0.2485 -0.7488 -1.4895
  439DOPC  C31760576   2.170  10.261   4.237 -0.1600 -0.1738 -0.3832
  439DOPC  H17X60577   2.094  10.342   4.251 -0.2353  0.0559 -1.9654
  439DOPC  H17Y60578   2.115  10.165   4.252  0.3163 -0.3239  0.4418
  439DOPC  C31860579   2.287  10.273   4.334 -0.1095 -0.2544  0.1609
  439DOPC  H18X60580   2.328  10.170   4.336  1.2075  0.1755 -1.6843
  439DOPC  H18Y60581   2.359  10.341   4.284 -0.6843  0.0647 -0.2478
  439DOPC  H18Z60582   2.260  10.309   4.435 -0.0024  0.7814 -0.1706
  440DOPC     N60583  10.662  11.789   1.429  0.0246  0.2696  0.6099
  440DOPC   C1260584  10.564  11.788   1.557  0.5308  0.6645 -0.3646
  440DOPC  H12A60585  10.532  11.889   1.578 -2.2613 -0.0204 -0.8647
  440DOPC  H12B60586  10.623  11.743   1.635 -0.2991 -1.7062 -1.0093
  440DOPC   C1360587  10.787  11.865   1.449  0.2272 -1.1759 -0.2764
  440DOPC  H13A60588  10.769  11.972   1.455  1.2002 -0.9304 -1.3094
  440DOPC  H13B60589  10.829  11.824   1.540 -0.7437 -1.4016  0.0793
  440DOPC  H13C60590  10.858  11.842   1.371  1.5304 -1.2811  0.9038
  440DOPC   C1460591  10.587  11.835   1.306 -0.4284  0.0823  0.8993
  440DOPC  H14A60592  10.524  11.749   1.285 -0.3103  0.1100  0.4211
  440DOPC  H14B60593  10.529  11.923   1.330 -1.7528 -0.6430  0.5117
  440DOPC  H14C60594  10.645  11.850   1.216 -0.6111  2.2533  1.0998
  440DOPC   C1560595  10.707  11.647   1.411 -0.8837  0.7406  0.3298
  440DOPC  H15A60596  10.617  11.588   1.423 -1.5143  1.3289 -1.3271
  440DOPC  H15B60597  10.779  11.616   1.486 -0.5170  0.9150  0.0510
  440DOPC  H15C60598  10.744  11.632   1.311  0.1041 -0.0452  0.7921
  440DOPC   C1160599  10.438  11.701   1.548 -0.0944  0.1091  0.3702
  440DOPC  H11A60600  10.363  11.732   1.625 -0.5464 -0.5924  0.2207
  440DOPC  H11B60601  10.397  11.715   1.446  1.8646 -0.6868 -0.5809
  440DOPC     P60602  10.515  11.495   1.699 -0.1601  0.0279 -0.1331
  440DOPC   O1360603  10.659  11.479   1.695 -0.2134  0.0106  0.3716
  440DOPC   O1460604  10.435  11.371   1.722 -0.3075  0.7503 -0.7742
  440DOPC   O1260605  10.472  11.565   1.563  0.2792 -0.1057 -0.5712
  440DOPC   O1160606  10.477  11.605   1.812  0.1126 -0.3468 -0.0692
  440DOPC    C160607  10.536  11.592   1.940  0.3834  0.4532 -0.3365
  440DOPC    HA60608  10.560  11.694   1.976  1.7871  0.0668 -0.1229
  440DOPC    HB60609  10.637  11.545   1.939  1.6973  3.0605 -2.3875
  440DOPC    C260610  10.451  11.521   2.052 -0.2318  0.2158  0.0892
  440DOPC    HS60611  10.462  11.589   2.139  1.2085  1.3450 -0.9219
  440DOPC   O2160612  10.495  11.391   2.084  0.1546 -0.4162  0.1100
  440DOPC   C2160613  10.606  11.383   2.156 -0.1298 -0.0172 -0.7965
  440DOPC   O2260614  10.679  11.476   2.182  0.4920  0.3999 -0.3037
  440DOPC   C2260615  10.635  11.240   2.191 -0.6779 -0.3004  0.5363
  440DOPC   H2R60616  10.702  11.195   2.115 -3.1461  0.1313 -2.0715
  440DOPC   H2S60617  10.541  11.181   2.195 -1.5711  0.8765 -1.4649
  440DOPC    C360618  10.303  11.506   2.015  0.0523 -0.7333 -0.0253
  440DOPC    HX60619  10.301  11.426   1.938  4.6742 -0.8748 -0.2738
  440DOPC    HY60620  10.269  11.602   1.969 -0.4406 -0.4605  0.8968
  440DOPC   O3160621  10.220  11.486   2.129  0.6361  0.1732 -0.6282
  440DOPC   C3160622  10.094  11.475   2.089 -0.1673  0.7583 -0.4137
  440DOPC   O3260623  10.051  11.486   1.976 -0.2838  0.1346 -0.1553
  440DOPC   C3260624  10.009  11.444   2.210 -0.0148 -0.2987  0.0360
  440DOPC   H2X60625  10.000  11.531   2.279 -0.5077  0.1952 -0.6416
  440DOPC   H2Y60626   9.908  11.425   2.169 -0.5766  1.2898  0.6090
  440DOPC   C2360627  10.693  11.234   2.333 -0.0195  0.7263 -0.7337
  440DOPC   H3R60628  10.767  11.316   2.350  0.6137 -0.1705  1.1872
  440DOPC   H3S60629  10.759  11.149   2.362 -1.9615  0.1578  2.4622
  440DOPC   C2460630  10.590  11.232   2.448  0.3036 -0.2866 -0.5333
  440DOPC   H4R60631  10.530  11.139   2.441  1.1560 -1.1847  2.7527
  440DOPC   H4S60632  10.522  11.317   2.424  1.6003  1.7108  2.3281
  440DOPC   C2560633  10.653  11.243   2.591 -0.2513  0.2254 -0.4059
  440DOPC   H5R60634  10.738  11.315   2.593 -0.4592  0.4652  0.8358
  440DOPC   H5S60635  10.702  11.146   2.614  0.8675  0.8696  0.0244
  440DOPC   C2660636  10.555  11.272   2.702  0.1274 -0.0697 -0.5020
  440DOPC   H6R60637  10.482  11.189   2.713  0.7003 -0.7931 -1.9060
  440DOPC   H6S60638  10.493  11.358   2.668 -1.1246 -0.3407  0.9637
  440DOPC   C2760639  10.635  11.302   2.834  0.4374  0.0188  0.0306
  440DOPC   H7R60640  10.708  11.381   2.808 -0.3659  1.1169  0.9828
  440DOPC   H7S60641  10.688  11.205   2.842  0.0649 -0.5366 -3.0264
  440DOPC   C2860642  10.552  11.348   2.958  0.0069  0.1318  0.1751
  440DOPC   H8R60643  10.479  11.268   2.982 -1.1430  1.2168  0.3335
  440DOPC   H8S60644  10.497  11.441   2.938  0.0683  0.5658  1.8642
  440DOPC   C2960645  10.634  11.368   3.085  0.0764 -0.3415 -0.0555
  440DOPC   H9R60646  10.709  11.289   3.100  1.2501  0.4311 -1.5968
  440DOPC  C21060647  10.623  11.465   3.179  0.3481  0.0775 -0.1716
  440DOPC  H10R60648  10.683  11.445   3.268 -1.2145  0.2931  0.9736
  440DOPC  C21160649  10.528  11.578   3.184 -0.3517 -0.1613 -0.4669
  440DOPC  H11R60650  10.451  11.561   3.262  0.0265 -3.5006 -0.6710
  440DOPC  H11S60651  10.476  11.586   3.086  0.0107 -1.5918 -0.8047
  440DOPC  C21260652  10.593  11.709   3.224 -0.5934 -0.5535  0.3763
  440DOPC  H12R60653  10.688  11.726   3.168 -0.0196 -2.0560  0.8454
  440DOPC  H12S60654  10.626  11.696   3.330 -0.6781 -0.9053  0.3620
  440DOPC  C21360655  10.489  11.817   3.218  0.6267 -0.0845  0.2659
  440DOPC  H13R60656  10.403  11.774   3.275  1.2424 -0.5985  0.8174
  440DOPC  H13S60657  10.453  11.835   3.115  0.4148 -0.1369  0.3289
  440DOPC  C21460658  10.530  11.950   3.284 -0.9490 -0.3096 -0.2724
  440DOPC  H14R60659  10.611  12.001   3.228 -0.8238  0.0276  0.2143
  440DOPC  H14S60660  10.569  11.927   3.385 -1.0522  1.0013  0.0754
  440DOPC  C21560661  10.422  12.060   3.290  0.7730  0.9771  0.2157
  440DOPC  H15R60662  10.442  12.139   3.365  0.2526  3.5279 -2.1671
  440DOPC  H15S60663  10.336  11.997   3.321  1.6533  0.1593  1.0715
  440DOPC  C21660664  10.385  12.124   3.159 -0.6133 -0.0109 -0.1541
  440DOPC  H16R60665  10.285  12.174   3.155  0.4273  2.2761  0.5836
  440DOPC  H16S60666  10.390  12.045   3.082  0.8589 -0.5703  0.4942
  440DOPC  C21760667  10.488  12.236   3.131 -0.4205  0.0746  0.2319
  440DOPC  H17R60668  10.571  12.174   3.091 -1.0964 -0.8415  0.2309
  440DOPC  H17S60669  10.524  12.285   3.224 -0.8703 -1.0159  1.0008
  440DOPC  C21860670  10.453  12.338   3.026 -0.1111  0.4259 -0.3598
  440DOPC  H18R60671  10.530  12.417   3.012  1.3226 -0.2641  2.7235
  440DOPC  H18S60672  10.365  12.396   3.063 -1.4527 -2.1352  0.7302
  440DOPC  H18T60673  10.432  12.284   2.932  0.3931  0.6063 -0.5772
  440DOPC   C3360674  10.043  11.320   2.292 -0.4872  0.2146  0.2703
  440DOPC   H3X60675  10.105  11.254   2.227  1.7517  2.7852 -0.3835
  440DOPC   H3Y60676   9.946  11.269   2.309 -0.0534 -0.2541  1.4258
  440DOPC   C3460677  10.115  11.348   2.426 -0.5337 -0.6889  0.1570
  440DOPC   H4X60678  10.197  11.416   2.396 -1.8194  0.3646 -1.1077
  440DOPC   H4Y60679  10.169  11.255   2.457  1.1004  0.6504  1.5305
  440DOPC   C3560680  10.016  11.393   2.535 -0.1212 -0.1965 -0.3995
  440DOPC   H5X60681   9.930  11.325   2.557 -1.0567  1.3996  1.2147
  440DOPC   H5Y60682   9.958  11.486   2.518 -0.6333 -0.2170  1.0444
  440DOPC   C3660683  10.091  11.408   2.665  0.6293  0.8608 -0.1314
  440DOPC   H6X60684  10.146  11.313   2.685 -0.0954  0.7855  1.7118
  440DOPC   H6Y60685  10.168  11.488   2.665  3.4870 -1.6541  1.6556
  440DOPC   C3760686  10.004  11.437   2.780 -0.3705 -0.6430 -0.2652
  440DOPC   H7X60687   9.931  11.516   2.755  0.1747  0.4938  1.5785
  440DOPC   H7Y60688   9.952  11.342   2.804 -0.6466 -0.2910  0.5534
  440DOPC   C3860689  10.073  11.482   2.911 -0.4552 -0.1515  0.2759
  440DOPC   H8X60690  10.148  11.564   2.905 -0.3943 -0.2899 -1.0860
  440DOPC   H8Y60691  10.125  11.393   2.951  1.6007  0.3931 -1.0697
  440DOPC   C3960692   9.972  11.534   3.012 -0.0096  0.7516 -0.0946
  440DOPC   H9X60693   9.885  11.586   2.969 -0.4911  2.1765  2.4243
  440DOPC  C31060694   9.972  11.516   3.146  0.2942 -0.0027  0.0153
  440DOPC  H10X60695   9.893  11.567   3.203 -0.6425 -0.9737 -0.3800
  440DOPC  C31160696  10.068  11.431   3.226 -0.1095  0.7164 -0.8457
  440DOPC  H11X60697  10.145  11.389   3.159  0.2556  1.4249 -0.8858
  440DOPC  H11Y60698  10.018  11.340   3.266 -0.2228  1.5578  1.0927
  440DOPC  C31260699  10.150  11.495   3.334  0.0042  0.2878 -0.3051
  440DOPC  H12X60700  10.166  11.598   3.298 -4.4650  1.0850 -0.5972
  440DOPC  H12Y60701  10.249  11.445   3.344 -0.8887 -1.7867 -1.2708
  440DOPC  C31360702  10.076  11.501   3.467 -0.9375  0.1769 -0.4663
  440DOPC  H13X60703   9.977  11.548   3.454 -0.5056  1.5672  0.9069
  440DOPC  H13Y60704  10.052  11.397   3.499 -1.2902  0.4278  0.0999
  440DOPC  C31460705  10.160  11.583   3.571 -0.1482 -0.1354 -0.5225
  440DOPC  H14X60706  10.124  11.569   3.675 -0.8675 -0.7440 -0.8418
  440DOPC  H14Y60707  10.262  11.541   3.584 -0.7046 -1.0088  1.4717
  440DOPC  C31560708  10.155  11.735   3.547  0.5851  0.4453  0.1060
  440DOPC  H15X60709  10.054  11.781   3.552  0.6498  0.6824 -0.6488
  440DOPC  H15Y60710  10.181  11.759   3.441  1.0362  2.0712  0.5561
  440DOPC  C31660711  10.243  11.814   3.644  0.4349  0.0639  0.0694
  440DOPC  H16X60712  10.207  11.795   3.747 -0.2079  0.3893 -0.0827
  440DOPC  H16Y60713  10.350  11.793   3.628 -0.0765 -1.5750 -1.5170
  440DOPC  C31760714  10.222  11.974   3.635 -0.4965  0.5192  0.6634
  440DOPC  H17X60715  10.200  11.996   3.529  1.0654 -1.4921 -0.1450
  440DOPC  H17Y60716  10.128  11.999   3.690  1.4319  3.6235  2.8863
  440DOPC  C31860717  10.344  12.048   3.689 -0.3889  0.2610 -0.6187
  440DOPC  H18X60718  10.394  11.991   3.770 -0.6101 -0.2820 -0.8581
  440DOPC  H18Y60719  10.425  12.065   3.616  0.9097 -1.3215  0.3887
  440DOPC  H18Z60720  10.327  12.142   3.747  1.7026  0.7690 -0.7575
  441DOPC     N60721   1.195   9.037   1.850  0.4273 -0.0947 -0.7903
  441DOPC   C1260722   1.126   9.151   1.932  0.3263 -0.5102 -0.1982
  441DOPC  H12A60723   1.164   9.144   2.032 -0.4059 -1.1860  0.0412
  441DOPC  H12B60724   1.021   9.124   1.930  0.3623 -0.9199  1.9415
  441DOPC   C1360725   1.140   9.023   1.708  0.0281 -0.1727 -0.6572
  441DOPC  H13A60726   1.180   8.941   1.650  0.1900 -0.7442  0.2410
  441DOPC  H13B60727   1.032   9.014   1.712 -0.1335  1.4574 -0.4810
  441DOPC  H13C60728   1.162   9.114   1.654  1.2329 -1.0113 -1.6202
  441DOPC   C1460729   1.164   8.896   1.913 -0.4503  0.2759 -0.3199
  441DOPC  H14A60730   1.241   8.826   1.883  1.8008  1.9863  1.1041
  441DOPC  H14B60731   1.197   8.899   2.015  1.7420 -2.6449 -0.7915
  441DOPC  H14C60732   1.063   8.863   1.897 -0.3363 -0.9522  1.2786
  441DOPC   C1560733   1.338   9.066   1.850 -0.1399  0.9673 -0.3768
  441DOPC  H15A60734   1.359   9.161   1.803  0.0800 -0.3422 -3.0928
  441DOPC  H15B60735   1.392   8.993   1.791  2.6515  0.4447  2.5449
  441DOPC  H15C60736   1.367   9.072   1.954 -1.9245  1.4829  0.1207
  441DOPC   C1160737   1.137   9.297   1.885  0.2091 -0.1382  0.2652
  441DOPC  H11A60738   1.094   9.303   1.783  1.2449 -1.6889 -0.2941
  441DOPC  H11B60739   1.079   9.363   1.953 -2.8071 -1.4232 -0.8856
  441DOPC     P60740   1.354   9.393   1.993  0.1280  0.0437  0.3956
  441DOPC   O1360741   1.273   9.487   2.073 -0.0849 -0.4573 -0.0206
  441DOPC   O1460742   1.482   9.444   1.944  0.8406 -0.4815  0.4977
  441DOPC   O1260743   1.270   9.335   1.868  0.3269 -0.9374 -0.2296
  441DOPC   O1160744   1.383   9.264   2.079 -0.0033 -0.6751  0.5954
  441DOPC    C160745   1.384   9.266   2.223 -0.6975 -0.5426 -1.2275
  441DOPC    HA60746   1.289   9.291   2.276  0.1838 -1.3664  0.8728
  441DOPC    HB60747   1.475   9.318   2.260 -1.9474  1.2262 -0.5126
  441DOPC    C260748   1.411   9.122   2.277  0.8642 -0.0656  0.3333
  441DOPC    HS60749   1.398   9.127   2.387 -1.1873 -0.3055  0.1351
  441DOPC   O2160750   1.534   9.062   2.238 -0.3698 -0.2774 -0.0466
  441DOPC   C2160751   1.641   9.084   2.312  0.7846  0.0444  0.6180
  441DOPC   O2260752   1.641   9.147   2.416  0.2710  0.4621  0.6063
  441DOPC   C2260753   1.766   9.011   2.260  0.1489 -0.0898 -0.1064
  441DOPC   H2R60754   1.827   9.097   2.227 -0.3641  0.7637  1.1016
  441DOPC   H2S60755   1.752   8.938   2.178  2.8172  0.3923 -1.0766
  441DOPC    C360756   1.298   9.017   2.246 -1.4634 -0.6710 -0.2589
  441DOPC    HX60757   1.303   8.932   2.317 -0.9390 -1.3540 -1.0819
  441DOPC    HY60758   1.317   8.978   2.143 -1.3529  0.1173 -0.5449
  441DOPC   O3160759   1.168   9.080   2.231 -0.0274 -0.1539 -0.3385
  441DOPC   C3160760   1.094   9.076   2.342  0.3069  0.2591  0.1096
  441DOPC   O3260761   1.129   9.030   2.448 -0.1546 -0.0300  0.5922
  441DOPC   C3260762   0.960   9.142   2.308 -0.3668  0.1518  0.2125
  441DOPC   H2X60763   0.974   9.252   2.303  0.8739  0.1005  1.9901
  441DOPC   H2Y60764   0.935   9.099   2.208 -2.4331 -1.1968  1.2282
  441DOPC   C2360765   1.838   8.944   2.372  0.7753  0.2828 -0.2153
  441DOPC   H3R60766   1.802   8.840   2.384  1.2480  0.3792  2.9598
  441DOPC   H3S60767   1.825   8.992   2.471  1.0294  2.4503 -1.1653
  441DOPC   C2460768   1.988   8.942   2.350 -0.3449  0.3038 -0.0355
  441DOPC   H4R60769   2.027   9.035   2.397 -1.3763  0.0472  1.4082
  441DOPC   H4S60770   2.004   8.942   2.240  1.5556  0.8531  0.2050
  441DOPC   C2560771   2.061   8.816   2.414  0.1585 -0.1708  0.3973
  441DOPC   H5R60772   2.168   8.845   2.408 -0.2764  1.4422 -0.1288
  441DOPC   H5S60773   2.036   8.727   2.352 -2.8649  1.6221 -1.2232
  441DOPC   C2660774   2.017   8.796   2.560 -0.2126 -0.1439 -0.7372
  441DOPC   H6R60775   2.088   8.722   2.603 -0.1995  0.1858 -0.1798
  441DOPC   H6S60776   1.912   8.759   2.570  0.1070 -0.4134  2.8343
  441DOPC   C2760777   2.026   8.923   2.657 -0.7285 -0.1367 -0.4002
  441DOPC   H7R60778   1.950   8.999   2.628  0.9112  0.6897 -2.8097
  441DOPC   H7S60779   2.128   8.962   2.640 -0.2664  0.4241  3.0339
  441DOPC   C2860780   2.040   8.883   2.801 -0.0818 -0.2598 -0.0711
  441DOPC   H8R60781   2.126   8.815   2.817  0.8639  0.8421 -0.3292
  441DOPC   H8S60782   1.954   8.820   2.831  1.3224 -1.6643  1.1625
  441DOPC   C2960783   2.055   9.008   2.882 -0.4761 -0.1449 -0.6657
  441DOPC   H9R60784   2.147   9.064   2.858 -0.5237 -1.2110 -3.7453
  441DOPC  C21060785   1.973   9.040   2.986  0.3713 -0.2686 -0.2321
  441DOPC  H10R60786   1.989   9.133   3.042  0.4525 -0.6090  0.3226
  441DOPC  C21160787   1.846   8.960   3.024 -0.3555 -0.0004 -0.0844
  441DOPC  H11R60788   1.790   8.922   2.937  1.0142  1.5078 -1.6951
  441DOPC  H11S60789   1.777   9.032   3.073 -0.3362  0.0659 -0.1547
  441DOPC  C21260790   1.876   8.849   3.123 -0.2603 -0.1083  0.4197
  441DOPC  H12R60791   1.954   8.784   3.077  0.0610 -1.0535  2.2072
  441DOPC  H12S60792   1.788   8.782   3.135  0.1242 -1.3901 -2.9276
  441DOPC  C21360793   1.930   8.906   3.258  0.0476 -0.0666  0.1355
  441DOPC  H13R60794   1.863   8.987   3.293  0.0297 -1.4541  3.6365
  441DOPC  H13S60795   2.034   8.944   3.246 -0.6073  1.5966 -0.6952
  441DOPC  C21460796   1.940   8.790   3.366 -0.0589 -0.6055  0.0842
  441DOPC  H14R60797   2.027   8.808   3.434 -0.3647  0.0822  0.3089
  441DOPC  H14S60798   1.954   8.697   3.307 -0.6195 -0.7071  0.1013
  441DOPC  C21560799   1.809   8.783   3.443  0.8283  0.4040  0.5725
  441DOPC  H15R60800   1.803   8.686   3.496  1.8713 -0.8586 -1.5083
  441DOPC  H15S60801   1.728   8.794   3.368  1.4983  3.7583  0.1530
  441DOPC  C21660802   1.806   8.887   3.549 -0.2572  0.2368  0.4133
  441DOPC  H16R60803   1.817   8.979   3.488 -1.1363  0.0784 -0.0077
  441DOPC  H16S60804   1.898   8.871   3.609 -0.6885  0.7575  1.2398
  441DOPC  C21760805   1.679   8.905   3.635  0.4416  0.5013  0.0354
  441DOPC  H17R60806   1.589   8.928   3.574  0.4743 -1.2865 -0.7723
  441DOPC  H17S60807   1.700   8.992   3.701  0.2288  0.0684  0.6827
  441DOPC  C21860808   1.653   8.773   3.717 -0.8207  0.1130  0.4046
  441DOPC  H18R60809   1.574   8.795   3.792 -1.1431 -0.4324  0.2289
  441DOPC  H18S60810   1.748   8.728   3.754 -1.7187  0.2978  3.0795
  441DOPC  H18T60811   1.610   8.702   3.643 -1.3285  0.5869  0.2340
  441DOPC   C3360812   0.851   9.112   2.417 -0.3412 -0.6423 -0.0183
  441DOPC   H3X60813   0.906   9.116   2.513 -1.4457 -0.9058  0.6376
  441DOPC   H3Y60814   0.806   9.014   2.391 -1.9169  0.0888 -0.1677
  441DOPC   C3460815   0.747   9.226   2.426  0.2030  0.7728 -0.0649
  441DOPC   H4X60816   0.655   9.178   2.465  1.2530 -0.5910  0.8859
  441DOPC   H4Y60817   0.729   9.254   2.320 -1.1790  0.7634  0.1594
  441DOPC   C3560818   0.792   9.336   2.510 -0.5054 -0.0842 -0.3513
  441DOPC   H5X60819   0.738   9.430   2.484  0.0443  0.7743  1.3958
  441DOPC   H5Y60820   0.899   9.350   2.484 -1.0229  1.1587 -1.9541
  441DOPC   C3660821   0.786   9.302   2.659 -0.4941 -0.6359  0.6619
  441DOPC   H6X60822   0.825   9.198   2.662 -0.6392 -0.7570 -0.9258
  441DOPC   H6Y60823   0.858   9.373   2.705 -2.6746  0.5512  2.5069
  441DOPC   C3760824   0.656   9.312   2.729 -0.1428  0.2925 -0.4244
  441DOPC   H7X60825   0.615   9.414   2.716  3.4991  1.7005 -2.2469
  441DOPC   H7Y60826   0.579   9.239   2.695  0.7914 -0.7549 -0.3381
  441DOPC   C3860827   0.673   9.297   2.881 -0.5337  0.5370 -0.3731
  441DOPC   H8X60828   0.584   9.347   2.925  0.0643  1.6251 -0.3521
  441DOPC   H8Y60829   0.765   9.353   2.908  0.2292  0.2567 -2.2557
  441DOPC   C3960830   0.700   9.147   2.916  0.6777  0.2552  0.3602
  441DOPC   H9X60831   0.776   9.102   2.850  0.4258 -0.4830  0.5637
  441DOPC  C31060832   0.649   9.079   3.019 -0.4975 -0.0263  0.3821
  441DOPC  H10X60833   0.647   8.969   3.024 -1.2886 -0.0501 -0.2381
  441DOPC  C31160834   0.558   9.135   3.124  0.3819  0.5946  0.0359
  441DOPC  H11X60835   0.458   9.091   3.101 -0.2037  1.9089 -0.0618
  441DOPC  H11Y60836   0.554   9.245   3.112 -0.1759  0.4498 -1.3786
  441DOPC  C31260837   0.586   9.112   3.268 -0.1770  0.0363  0.0537
  441DOPC  H12X60838   0.688   9.133   3.306 -0.3617  0.1921  0.4729
  441DOPC  H12Y60839   0.549   9.012   3.302 -0.1708 -0.5857 -1.7049
  441DOPC  C31360840   0.494   9.210   3.347 -0.1396 -0.4380 -0.0821
  441DOPC  H13X60841   0.511   9.308   3.298 -2.8448  0.3517  0.4422
  441DOPC  H13Y60842   0.389   9.185   3.322 -0.5230  1.0147  0.0476
  441DOPC  C31460843   0.523   9.215   3.493 -0.0645  0.2501  0.0700
  441DOPC  H14X60844   0.500   9.117   3.541 -2.6526  1.0777  0.6176
  441DOPC  H14Y60845   0.630   9.244   3.504  0.1211 -0.5444  0.4199
  441DOPC  C31560846   0.444   9.332   3.559 -0.1181  0.6744 -0.0078
  441DOPC  H15X60847   0.335   9.316   3.544 -0.2634  1.5997  0.0491
  441DOPC  H15Y60848   0.467   9.427   3.506 -2.7472  1.7918  0.7054
  441DOPC  C31660849   0.467   9.332   3.709  0.4494 -0.1961 -0.5634
  441DOPC  H16X60850   0.426   9.235   3.746 -0.3892  1.5125  3.5963
  441DOPC  H16Y60851   0.577   9.326   3.724  0.3190 -1.0758  0.1479
  441DOPC  C31760852   0.406   9.454   3.778 -0.0221 -0.5600  0.5026
  441DOPC  H17X60853   0.457   9.547   3.747 -2.9242  0.7236 -0.8238
  441DOPC  H17Y60854   0.303   9.468   3.737  0.5129  0.8624 -0.4289
  441DOPC  C31860855   0.418   9.440   3.929 -0.1233 -0.0868  0.3690
  441DOPC  H18X60856   0.520   9.412   3.960  1.5955  0.0352 -4.3865
  441DOPC  H18Y60857   0.378   9.532   3.978 -0.2803  0.3308 -0.5174
  441DOPC  H18Z60858   0.344   9.361   3.956 -0.7944 -0.1501 -1.5171
  442DOPC     N60859   9.195  11.515   1.506  1.1208 -0.2492 -0.8193
  442DOPC   C1260860   9.227  11.481   1.657 -0.2057  0.5482 -0.0234
  442DOPC  H12A60861   9.236  11.574   1.711 -2.6488  1.2467 -0.7313
  442DOPC  H12B60862   9.326  11.437   1.657 -0.5832 -0.3718  1.8487
  442DOPC   C1360863   9.176  11.396   1.419 -0.4232 -0.0120 -0.5602
  442DOPC  H13A60864   9.265  11.336   1.406  0.1344  1.2123 -2.9273
  442DOPC  H13B60865   9.088  11.336   1.438 -1.5874  1.6948 -0.3445
  442DOPC  H13C60866   9.155  11.441   1.323  1.0294  2.2170  0.0793
  442DOPC   C1460867   9.305  11.589   1.450  0.2979  0.2683 -0.2896
  442DOPC  H14A60868   9.340  11.676   1.503 -2.8881  2.0800 -0.9261
  442DOPC  H14B60869   9.391  11.524   1.435  0.5552  0.6576 -0.5135
  442DOPC  H14C60870   9.277  11.630   1.354 -1.2122 -1.2115 -0.5275
  442DOPC   C1560871   9.073  11.603   1.505  0.4125  1.1621 -0.3043
  442DOPC  H15A60872   9.046  11.655   1.414 -2.3911 -0.7051 -0.6765
  442DOPC  H15B60873   9.098  11.686   1.570  0.2589  2.6148 -2.0149
  442DOPC  H15C60874   8.984  11.550   1.537  1.2788 -1.8606 -2.4941
  442DOPC   C1160875   9.116  11.395   1.722 -0.5379  0.3782  0.2430
  442DOPC  H11A60876   9.073  11.323   1.650  1.2199 -2.3133  1.7466
  442DOPC  H11B60877   9.164  11.334   1.802 -1.0967  1.2094  1.2534
  442DOPC     P60878   9.021  11.556   1.905  0.2772  0.1678  0.0307
  442DOPC   O1360879   8.900  11.648   1.916  0.6816 -0.0665  0.0680
  442DOPC   O1460880   9.155  11.621   1.901 -0.8027  0.3701 -0.2139
  442DOPC   O1260881   9.004  11.472   1.771  0.1334 -1.0659  0.3506
  442DOPC   O1160882   9.026  11.439   2.013  0.4086 -0.9722  0.2616
  442DOPC    C160883   8.919  11.341   2.033 -0.0610 -0.1750 -0.4314
  442DOPC    HA60884   8.942  11.240   1.993 -2.6287 -1.3257  0.8108
  442DOPC    HB60885   8.826  11.374   1.983 -0.5536 -1.0841 -0.1409
  442DOPC    C260886   8.890  11.337   2.189  0.6492 -0.5799  0.0646
  442DOPC    HS60887   8.874  11.442   2.222 -0.4458 -1.8022  4.0519
  442DOPC   O2160888   9.003  11.273   2.253 -0.4055 -0.5302  0.2753
  442DOPC   C2160889   9.072  11.350   2.335 -0.2532 -0.3431  0.5242
  442DOPC   O2260890   9.046  11.463   2.365 -0.7765 -0.2347  0.3783
  442DOPC   C2260891   9.181  11.271   2.405 -0.1441 -0.1393  0.1821
  442DOPC   H2R60892   9.259  11.340   2.445 -0.4094  0.0687  0.3381
  442DOPC   H2S60893   9.233  11.221   2.320 -0.7738  0.7895 -0.7615
  442DOPC    C360894   8.761  11.259   2.234 -0.2482  0.1185 -0.0970
  442DOPC    HX60895   8.760  11.163   2.178 -1.4928 -0.2008  0.4390
  442DOPC    HY60896   8.670  11.311   2.197 -0.7282  0.0558  0.9386
  442DOPC   O3160897   8.767  11.231   2.372  0.1912 -0.7084 -0.1199
  442DOPC   C3160898   8.717  11.337   2.442  0.0340  0.1517  0.2629
  442DOPC   O3260899   8.668  11.437   2.391  0.4584  0.2790 -0.4752
  442DOPC   C3260900   8.720  11.320   2.595  0.0997  0.1626 -0.4634
  442DOPC   H2X60901   8.770  11.228   2.630  1.6364  0.1992 -2.4046
  442DOPC   H2Y60902   8.770  11.411   2.635  1.4215 -0.9953  0.6241
  442DOPC   C2360903   9.139  11.175   2.524  0.2968 -0.7528  0.3097
  442DOPC   H3R60904   9.211  11.092   2.540  0.4349 -0.6855  0.0532
  442DOPC   H3S60905   9.039  11.132   2.500  0.3606 -0.3050 -0.8431
  442DOPC   C2460906   9.123  11.253   2.655 -0.2439 -0.2199 -0.0890
  442DOPC   H4R60907   9.044  11.328   2.634 -0.5119 -0.2387  0.8022
  442DOPC   H4S60908   9.209  11.309   2.699 -2.0884  1.0372  2.1634
  442DOPC   C2560909   9.060  11.173   2.767 -0.1033  0.8377  0.1494
  442DOPC   H5R60910   9.141  11.115   2.817  0.1530 -0.1661 -1.3620
  442DOPC   H5S60911   8.994  11.101   2.714  1.5652  1.2932 -2.7706
  442DOPC   C2660912   8.984  11.263   2.867  0.4991  0.3053 -0.4234
  442DOPC   H6R60913   8.904  11.320   2.815  0.8400  1.1375 -0.0476
  442DOPC   H6S60914   9.059  11.330   2.913  0.9943  0.1940 -1.0523
  442DOPC   C2760915   8.911  11.186   2.981  0.3257 -0.1570  0.4374
  442DOPC   H7R60916   8.967  11.114   3.043 -1.9852 -1.3503  1.2644
  442DOPC   H7S60917   8.825  11.129   2.938 -1.4127  1.7939  1.1214
  442DOPC   C2860918   8.866  11.292   3.077  0.2708 -0.1253  0.5958
  442DOPC   H8R60919   8.804  11.370   3.029  0.0008 -0.5710  0.2157
  442DOPC   H8S60920   8.954  11.346   3.118  0.7272 -0.3470 -0.0786
  442DOPC   C2960921   8.782  11.230   3.185  0.1627  0.2911  0.0578
  442DOPC   H9R60922   8.714  11.145   3.170 -0.3734  0.0626  3.2081
  442DOPC  C21060923   8.789  11.266   3.311  0.0940 -0.7882 -0.2703
  442DOPC  H10R60924   8.711  11.235   3.381  1.2595 -0.0674  1.4294
  442DOPC  C21160925   8.885  11.377   3.360 -0.4298  0.3157  0.2284
  442DOPC  H11R60926   8.836  11.476   3.346  1.0582  1.2019  1.0807
  442DOPC  H11S60927   8.991  11.379   3.329 -0.5751  0.0597 -0.2924
  442DOPC  C21260928   8.886  11.369   3.524  0.0741 -0.3625  0.0329
  442DOPC  H12R60929   8.970  11.441   3.542 -0.5575  1.0256 -2.1506
  442DOPC  H12S60930   8.917  11.269   3.561  0.3983 -0.2012  0.2007
  442DOPC  C21360931   8.752  11.412   3.589 -0.0771 -0.3141  0.2551
  442DOPC  H13R60932   8.672  11.338   3.567 -0.8595  0.5588  0.1069
  442DOPC  H13S60933   8.717  11.505   3.539 -0.3182  0.2175  1.3783
  442DOPC  C21460934   8.776  11.427   3.746 -0.0855 -0.2928 -0.2789
  442DOPC  H14R60935   8.874  11.474   3.769  0.0105  0.8562 -2.6885
  442DOPC  H14S60936   8.783  11.324   3.785  0.5052  0.5010  1.8083
  442DOPC  C21560937   8.662  11.493   3.824 -0.1785 -0.1449 -0.3450
  442DOPC  H15R60938   8.581  11.418   3.832  0.5830 -0.8779  0.5945
  442DOPC  H15S60939   8.636  11.584   3.765 -0.5090 -0.1816 -0.2566
  442DOPC  C21660940   8.710  11.536   3.962 -0.0113  0.0745  0.1505
  442DOPC  H16R60941   8.626  11.585   4.016 -0.8524 -0.9876 -0.1592
  442DOPC  H16S60942   8.784  11.615   3.940  0.7309 -0.8743 -0.7997
  442DOPC  C21760943   8.770  11.419   4.046  0.1214  0.0382  0.2707
  442DOPC  H17R60944   8.855  11.366   3.998 -1.0840 -1.2475 -0.5337
  442DOPC  H17S60945   8.698  11.335   4.059 -1.2600  1.1001 -0.2416
  442DOPC  C21860946   8.812  11.466   4.181  0.8223 -0.1921 -0.9536
  442DOPC  H18R60947   8.873  11.558   4.172 -0.3951  0.5962 -1.3796
  442DOPC  H18S60948   8.867  11.388   4.239  0.1121 -0.0172 -0.0252
  442DOPC  H18T60949   8.722  11.481   4.245 -0.6734 -2.5743 -2.3260
  442DOPC   C3360950   8.574  11.321   2.639  0.3369 -0.4563 -1.0292
  442DOPC   H3X60951   8.508  11.249   2.588  1.9923 -0.8898 -2.6712
  442DOPC   H3Y60952   8.525  11.418   2.616  0.8810 -0.4072 -2.0323
  442DOPC   C3460953   8.566  11.283   2.794  0.1243 -0.1844  0.0339
  442DOPC   H4X60954   8.647  11.326   2.856  0.3272 -0.4390 -0.0543
  442DOPC   H4Y60955   8.577  11.173   2.802  1.7177  0.0439  1.4197
  442DOPC   C3560956   8.431  11.334   2.850  0.1793 -0.0802  0.4954
  442DOPC   H5X60957   8.343  11.283   2.806 -1.8213  3.6930 -0.2787
  442DOPC   H5Y60958   8.418  11.442   2.826 -0.5590 -0.4986 -1.0947
  442DOPC   C3660959   8.408  11.314   3.005  0.5479  0.3615  0.1574
  442DOPC   H6X60960   8.381  11.208   3.021  1.9317 -0.1307 -0.6491
  442DOPC   H6Y60961   8.500  11.325   3.067  0.2823 -1.6435  0.9931
  442DOPC   C3760962   8.309  11.400   3.077 -0.4941 -0.2247  0.1584
  442DOPC   H7X60963   8.335  11.508   3.081 -3.2330  0.5534 -0.9520
  442DOPC   H7Y60964   8.218  11.394   3.015 -0.7401 -2.0967  0.6582
  442DOPC   C3860965   8.275  11.355   3.220  0.4584 -0.3480 -0.0879
  442DOPC   H8X60966   8.253  11.246   3.223 -0.2595 -0.2231 -0.5126
  442DOPC   H8Y60967   8.188  11.415   3.254  1.2998  0.4109  0.7633
  442DOPC   C3960968   8.393  11.382   3.313 -0.1437 -0.0463 -0.2922
  442DOPC   H9X60969   8.494  11.366   3.273  1.0443  0.8775  2.1741
  442DOPC  C31060970   8.392  11.392   3.447  0.1420 -0.2045  0.5219
  442DOPC  H10X60971   8.482  11.432   3.496  0.9192 -0.6736 -0.4969
  442DOPC  C31160972   8.266  11.406   3.536 -0.1554  0.6998  0.1489
  442DOPC  H11X60973   8.171  11.429   3.482 -0.3621 -1.3957 -0.4793
  442DOPC  H11Y60974   8.277  11.487   3.612 -1.1562 -0.8853  2.0474
  442DOPC  C31260975   8.243  11.277   3.623 -0.5045  0.2165  0.8063
  442DOPC  H12X60976   8.232  11.182   3.567  0.6586 -0.2173  1.2880
  442DOPC  H12Y60977   8.140  11.286   3.662 -0.3311  1.9428  0.9752
  442DOPC  C31360978   8.354  11.263   3.724 -0.4283  0.0093 -0.4831
  442DOPC  H13X60979   8.450  11.250   3.671 -0.2065 -0.1078 -0.0520
  442DOPC  H13Y60980   8.372  11.355   3.784 -0.9623  0.4236 -0.9434
  442DOPC  C31460981   8.328  11.152   3.832  0.2753 -0.9470  0.0930
  442DOPC  H14X60982   8.240  11.176   3.896 -0.3522  0.7835 -1.3222
  442DOPC  H14Y60983   8.304  11.059   3.775 -0.4758 -1.5335  1.3137
  442DOPC  C31560984   8.452  11.128   3.921  0.0471  0.9495 -0.5063
  442DOPC  H15X60985   8.470  11.222   3.977  1.4963  0.8936 -0.8301
  442DOPC  H15Y60986   8.541  11.110   3.857  0.9758  0.9522  0.7524
  442DOPC  C31660987   8.443  10.998   4.002 -0.5812  0.5016 -0.1726
  442DOPC  H16X60988   8.343  10.978   4.046 -0.8198  0.2538 -0.8160
  442DOPC  H16Y60989   8.449  10.909   3.936  1.0628 -2.0165  3.0661
  442DOPC  C31760990   8.544  10.988   4.113 -0.0040  0.7825 -0.0776
  442DOPC  H17X60991   8.647  11.018   4.083  0.8175 -1.9379 -0.2410
  442DOPC  H17Y60992   8.516  11.060   4.193  1.6885  0.5172  0.8077
  442DOPC  C31860993   8.550  10.850   4.173  0.4853  0.0359  0.4713
  442DOPC  H18X60994   8.597  10.850   4.274 -0.0631 -3.4040  0.8501
  442DOPC  H18Y60995   8.444  10.818   4.187  0.9964 -1.4129  1.1943
  442DOPC  H18Z60996   8.598  10.782   4.100  1.5858  0.4299  0.8092
  443CHL1    C360997   8.740  10.688   6.062  0.6394 -0.2792  0.9809
  443CHL1    H360998   8.817  10.768   6.059  1.4428 -1.0859 -0.9117
  443CHL1    O360999   8.689  10.665   6.187  0.6264 -0.4897 -0.3173
  443CHL1   H3'61000   8.759  10.626   6.239 -0.8498  0.8583  2.9619
  443CHL1    C461001   8.621  10.728   5.965 -0.1591  0.9323  0.2789
  443CHL1   H4A61002   8.547  10.645   5.967 -0.1720  0.8761 -1.3619
  443CHL1   H4B61003   8.574  10.823   5.997 -0.4060  0.9324 -0.0815
  443CHL1    C561004   8.678  10.740   5.823  0.7058  0.1928  0.1529
  443CHL1    C661005   8.651  10.853   5.747 -0.1799 -0.6185  0.0673
  443CHL1    H661006   8.601  10.938   5.795 -2.1390 -1.4056 -0.5058
  443CHL1    C761007   8.682  10.864   5.601 -0.4510  0.5206 -0.2699
  443CHL1   H7A61008   8.586  10.892   5.551 -0.8005 -1.9983 -1.1490
  443CHL1   H7B61009   8.750  10.948   5.574 -2.6177  2.1626 -0.9551
  443CHL1    C861010   8.735  10.734   5.531 -0.3498 -0.2217  0.1669
  443CHL1    H861011   8.649  10.673   5.496  2.2590 -3.5074 -0.9909
  443CHL1   C1461012   8.818  10.767   5.409  0.3963 -1.1814 -0.2620
  443CHL1   H1461013   8.910  10.815   5.449 -0.1411 -2.2808  2.5344
  443CHL1   C1561014   8.756  10.863   5.310  0.0181 -0.6404  0.2297
  443CHL1  H15A61015   8.649  10.836   5.299 -0.5460  1.4543  0.1971
  443CHL1  H15B61016   8.761  10.968   5.346  1.3856 -0.3440 -0.7595
  443CHL1   C1661017   8.828  10.836   5.178 -0.4969  0.0659 -0.2421
  443CHL1  H16A61018   8.747  10.803   5.109 -0.5844  1.5364 -0.8904
  443CHL1  H16B61019   8.886  10.919   5.131  1.0398 -0.7884  0.0770
  443CHL1   C1761020   8.927  10.718   5.204 -0.7826 -0.0315  0.0346
  443CHL1   H1761021   9.019  10.771   5.236  0.2613 -1.7716  0.0292
  443CHL1   C1361022   8.866  10.650   5.331 -0.6085 -0.1484 -0.3713
  443CHL1   C1861023   8.744  10.558   5.296 -0.3008 -0.1920  0.4869
  443CHL1  H18A61024   8.771  10.479   5.223 -2.5654 -0.5492 -0.0290
  443CHL1  H18B61025   8.701  10.518   5.391 -0.8752  1.1536  0.8230
  443CHL1  H18C61026   8.666  10.618   5.245  1.6032  0.3187 -1.9992
  443CHL1   C1261027   8.967  10.570   5.427 -0.0140 -0.3401 -0.3884
  443CHL1  H12A61028   9.002  10.474   5.384  0.8595 -1.4300  2.5564
  443CHL1  H12B61029   9.055  10.633   5.453 -0.3760  0.3293 -0.7358
  443CHL1   C1161030   8.903  10.550   5.561  0.0639  0.1318 -0.5614
  443CHL1  H11A61031   8.844  10.457   5.549  1.5264 -1.0965  1.2504
  443CHL1  H11B61032   8.977  10.521   5.639 -2.8434  0.2330  2.4241
  443CHL1    C961033   8.822  10.658   5.630 -0.1600 -0.3579  0.4604
  443CHL1    H961034   8.891  10.741   5.659 -1.9838  1.2241  0.4822
  443CHL1   C1061035   8.750  10.616   5.763  0.4571  0.1969  0.1452
  443CHL1   C1961036   8.650  10.498   5.732  0.3696  0.3335 -0.0450
  443CHL1  H19A61037   8.705  10.405   5.706  1.9638  1.0789  0.5240
  443CHL1  H19B61038   8.598  10.465   5.824 -0.7193  3.2597  0.4802
  443CHL1  H19C61039   8.592  10.526   5.641  1.7480  1.0854 -0.7281
  443CHL1    C161040   8.855  10.572   5.870  0.7871 -0.3569  0.4262
  443CHL1   H1A61041   8.883  10.470   5.837 -1.9105 -1.9075  2.5560
  443CHL1   H1B61042   8.942  10.641   5.876  1.7965 -1.5456 -0.1424
  443CHL1    C261043   8.803  10.559   6.012  0.1071  0.3971  0.0788
  443CHL1   H2A61044   8.887  10.533   6.080  0.7039  1.9918  0.0142
  443CHL1   H2B61045   8.730  10.476   6.011  1.8469 -1.1962 -0.5292
  443CHL1   C2061046   8.962  10.633   5.076  0.9665 -0.2202 -1.4809
  443CHL1   H2061047   8.872  10.569   5.060  1.3567 -0.8401 -1.2183
  443CHL1   C2161048   9.087  10.554   5.093  0.5942 -0.9874 -0.3440
  443CHL1  H21A61049   9.127  10.495   5.007  3.9837 -0.4213  0.6847
  443CHL1  H21B61050   9.077  10.486   5.180  0.8045 -1.2051 -0.4854
  443CHL1  H21C61051   9.162  10.633   5.115 -0.8263  1.4576 -3.5217
  443CHL1   C2261052   8.964  10.716   4.951  0.2986 -0.0150  0.3503
  443CHL1  H22A61053   8.875  10.783   4.952  0.8851  0.7845  0.4830
  443CHL1  H22B61054   9.061  10.772   4.947  0.1122  0.4007  1.2294
  443CHL1   C2361055   8.942  10.632   4.822  0.7100 -0.1045  0.4534
  443CHL1  H23A61056   9.014  10.548   4.827 -1.7953 -2.3261  1.0088
  443CHL1  H23B61057   8.842  10.585   4.822  1.5623 -1.9859  0.8305
  443CHL1   C2461058   8.981  10.719   4.696  0.3596 -0.3546 -0.8528
  443CHL1  H24A61059   8.930  10.817   4.697  2.3557  0.7380 -0.5476
  443CHL1  H24B61060   9.090  10.741   4.707 -0.1696  2.1355 -0.0733
  443CHL1   C2561061   8.970  10.656   4.558 -0.4711 -0.5469  0.2439
  443CHL1   H2561062   9.006  10.734   4.488  2.4586 -0.4864  1.6682
  443CHL1   C2661063   9.070  10.545   4.541  0.2174  0.0976  0.0011
  443CHL1  H26A61064   9.049  10.475   4.626 -0.7029  2.0161  1.4286
  443CHL1  H26B61065   9.076  10.491   4.444  1.8538 -1.4901  0.9179
  443CHL1  H26C61066   9.173  10.579   4.561  0.2868 -0.8649  1.4893
  443CHL1   C2761067   8.824  10.622   4.524  0.4068  0.6894 -0.5133
  443CHL1  H27A61068   8.804  10.563   4.432  0.4310 -0.0941 -0.0263
  443CHL1  H27B61069   8.789  10.560   4.610  2.5684 -0.8238 -0.6384
  443CHL1  H27C61070   8.770  10.719   4.521 -0.4814  0.2980  1.2097
  444CHL1    C361071   6.182   0.856   5.589  0.4833  0.2420 -0.1215
  444CHL1    H361072   6.125   0.929   5.527  0.9075  2.5141  2.0245
  444CHL1    O361073   6.176   0.895   5.726  0.0539 -0.4759 -0.3404
  444CHL1   H3'61074   6.238   0.968   5.733 -1.8843  1.2478 -0.0393
  444CHL1    C461075   6.113   0.721   5.584  0.6993  0.7128 -0.4846
  444CHL1   H4A61076   6.160   0.650   5.656  1.7386 -0.5555 -2.3177
  444CHL1   H4B61077   6.009   0.738   5.619  0.7952 -0.2378  0.3070
  444CHL1    C561078   6.115   0.672   5.441  0.5842 -0.6656  0.4702
  444CHL1    C661079   6.000   0.644   5.377 -0.2570  0.3603  0.0559
  444CHL1    H661080   5.900   0.653   5.422  0.0205 -1.6471  1.1762
  444CHL1    C761081   5.994   0.594   5.237 -0.3474 -0.3260  0.1765
  444CHL1   H7A61082   5.918   0.514   5.223 -0.0522 -0.3476 -1.4582
  444CHL1   H7B61083   5.955   0.672   5.169  0.9935 -0.2013 -0.4811
  444CHL1    C861084   6.132   0.530   5.184  0.3004  0.1191  0.3315
  444CHL1    H861085   6.138   0.430   5.230  0.6115 -0.2641 -0.5163
  444CHL1   C1461086   6.113   0.535   5.030  0.1876  0.4533 -0.1308
  444CHL1   H1461087   6.102   0.642   5.001 -0.1346  0.5063  0.1851
  444CHL1   C1561088   5.993   0.454   4.963  0.6447 -0.6963 -0.2424
  444CHL1  H15A61089   5.975   0.360   5.019 -0.7472 -2.1799 -3.0122
  444CHL1  H15B61090   5.900   0.510   4.940 -0.3758 -1.6832  1.2748
  444CHL1   C1661091   6.041   0.416   4.822  0.4299 -0.1644 -0.3328
  444CHL1  H16A61092   6.040   0.305   4.812  1.0964 -0.0807 -1.6298
  444CHL1  H16B61093   5.969   0.460   4.749 -0.9676 -0.8109  0.6187
  444CHL1   C1761094   6.189   0.467   4.816 -0.4480  0.1550  0.5613
  444CHL1   H1761095   6.187   0.573   4.782  0.4472  0.3178  0.9645
  444CHL1   C1361096   6.240   0.478   4.963  0.6942  0.6120 -0.0059
  444CHL1   C1861097   6.279   0.334   5.018 -0.3266  0.3928  0.3288
  444CHL1  H18A61098   6.305   0.342   5.126  1.6792  0.8429 -0.1535
  444CHL1  H18B61099   6.194   0.263   5.005 -1.6314  2.0334 -0.4913
  444CHL1  H18C61100   6.375   0.312   4.967 -1.8450  1.8388 -3.5726
  444CHL1   C1261101   6.358   0.574   4.996  0.2459  0.0847  0.0365
  444CHL1  H12A61102   6.454   0.542   4.951  0.0514  2.1484 -2.0352
  444CHL1  H12B61103   6.331   0.671   4.948  2.5174 -0.1035 -1.7738
  444CHL1   C1161104   6.376   0.595   5.147 -0.4707  0.6439  0.1723
  444CHL1  H11A61105   6.405   0.497   5.190 -1.0433  0.4713  0.1799
  444CHL1  H11B61106   6.443   0.682   5.157 -0.7669  1.0696 -1.2921
  444CHL1    C961107   6.241   0.628   5.215  0.7712 -1.1148  0.4894
  444CHL1    H961108   6.213   0.727   5.173 -0.2853 -1.4844  0.2930
  444CHL1   C1061109   6.254   0.660   5.369 -1.0756 -0.4758  0.7888
  444CHL1   C1961110   6.331   0.532   5.428  0.6021  0.0602  0.1793
  444CHL1  H19A61111   6.432   0.519   5.385  0.3464  1.3868 -0.8863
  444CHL1  H19B61112   6.342   0.545   5.538 -1.0095  0.8108  0.2883
  444CHL1  H19C61113   6.275   0.437   5.409  0.5561 -0.0509  0.8540
  444CHL1    C161114   6.337   0.792   5.389  0.4357  0.0498 -0.2281
  444CHL1   H1A61115   6.436   0.765   5.346  0.4462 -1.5149  0.6904
  444CHL1   H1B61116   6.288   0.870   5.328  1.6665 -0.6456 -2.2470
  444CHL1    C261117   6.330   0.843   5.536 -0.3445  1.0304 -0.3608
  444CHL1   H2A61118   6.385   0.939   5.554  2.4423 -0.6249  0.6379
  444CHL1   H2B61119   6.380   0.770   5.602 -2.2753 -2.6558 -2.6627
  444CHL1   C2061120   6.274   0.394   4.703 -0.1622 -0.5168 -0.3145
  444CHL1   H2061121   6.347   0.327   4.753  1.0306 -0.3683 -1.7627
  444CHL1   C2161122   6.359   0.496   4.623 -0.0567 -0.0216  0.4358
  444CHL1  H21A61123   6.294   0.565   4.565  2.2651  1.7394 -0.1943
  444CHL1  H21B61124   6.426   0.458   4.543 -0.7826 -0.5947  0.0870
  444CHL1  H21C61125   6.411   0.557   4.700  0.6385 -3.1849  2.7048
  444CHL1   C2261126   6.180   0.317   4.604 -0.6632  0.1970  0.4574
  444CHL1  H22A61127   6.139   0.225   4.653 -0.0653 -0.7816 -0.8111
  444CHL1  H22B61128   6.099   0.385   4.573 -0.7674  0.4215  1.1989
  444CHL1   C2361129   6.255   0.258   4.486  0.1525  0.6285  0.6698
  444CHL1  H23A61130   6.294   0.333   4.413 -0.1451  2.7770  2.5853
  444CHL1  H23B61131   6.343   0.199   4.520 -0.9694 -0.6462  1.4316
  444CHL1   C2461132   6.167   0.160   4.406  0.5282  0.3031  0.7612
  444CHL1  H24A61133   6.166   0.055   4.443 -2.1504  0.4314  1.2883
  444CHL1  H24B61134   6.062   0.195   4.421  0.1309 -0.4961 -0.0441
  444CHL1   C2561135   6.196   0.166   4.249  0.0023  0.5910  0.0923
  444CHL1   H2561136   6.305   0.188   4.241  0.0591  0.2426 -0.0910
  444CHL1   C2661137   6.158   0.031   4.177  0.2236  0.2478  0.2520
  444CHL1  H26A61138   6.057   0.001   4.214 -1.3518  2.5693 -1.7646
  444CHL1  H26B61139   6.168   0.057   4.070 -0.5160  1.4706  0.4554
  444CHL1  H26C61140   6.228  -0.051   4.200 -1.9993 -2.1206 -0.9225
  444CHL1   C2761141   6.112   0.276   4.178 -0.3913  0.1281 -0.0113
  444CHL1  H27A61142   6.133   0.296   4.071 -2.7810 -2.5329 -1.1021
  444CHL1  H27B61143   6.007   0.243   4.197 -0.6164  1.4859  1.2928
  444CHL1  H27C61144   6.117   0.375   4.229 -0.5809  1.8218 -3.0604
  445CHL1    C361145   4.263   0.651   5.632 -0.5329  0.5960 -0.1540
  445CHL1    H361146   4.313   0.552   5.625  0.3425  1.1167 -1.6742
  445CHL1    O361147   4.241   0.678   5.769 -0.3257 -0.3172  0.1048
  445CHL1   H3'61148   4.162   0.732   5.781  1.1597  1.7278  1.0720
  445CHL1    C461149   4.356   0.762   5.574 -0.0376  0.3588  0.1430
  445CHL1   H4A61150   4.307   0.859   5.593 -0.8147  0.5055 -2.3248
  445CHL1   H4B61151   4.453   0.768   5.628 -1.2958  3.0364  2.3141
  445CHL1    C561152   4.376   0.747   5.423 -0.1341 -0.2478  0.4024
  445CHL1    C661153   4.502   0.745   5.374  0.3072 -0.2478 -0.4370
  445CHL1    H661154   4.588   0.763   5.439 -0.5663  0.2582  0.6094
  445CHL1    C761155   4.531   0.721   5.233 -0.0751 -0.3293  0.0140
  445CHL1   H7A61156   4.605   0.798   5.202 -0.6272  0.1357 -0.1740
  445CHL1   H7B61157   4.578   0.622   5.218 -0.3836 -0.2826 -1.3825
  445CHL1    C861158   4.406   0.735   5.137 -0.3179  0.3579  0.0757
  445CHL1    H861159   4.393   0.845   5.130 -2.6582  0.0706 -0.7867
  445CHL1   C1461160   4.448   0.664   5.005  0.3293 -0.4836  0.3576
  445CHL1   H1461161   4.476   0.561   5.037  1.2323 -0.8169 -1.3993
  445CHL1   C1561162   4.567   0.715   4.931 -0.2542 -0.3940 -0.1070
  445CHL1  H15A61163   4.558   0.825   4.920 -2.7810 -0.4233  0.9986
  445CHL1  H15B61164   4.668   0.693   4.971  0.2047  0.8924 -0.5320
  445CHL1   C1661165   4.556   0.661   4.783  0.1650  0.3297 -0.2436
  445CHL1  H16A61166   4.526   0.744   4.715 -0.7547  1.1192  1.0557
  445CHL1  H16B61167   4.637   0.597   4.743  0.4329 -0.2302  1.1161
  445CHL1   C1761168   4.425   0.582   4.788 -0.1562  0.4116  0.0734
  445CHL1   H1761169   4.457   0.485   4.830 -2.8432 -0.7047 -0.2794
  445CHL1   C1361170   4.342   0.658   4.898  0.0432  0.6390 -0.1096
  445CHL1   C1861171   4.299   0.799   4.859  0.1239  0.2513 -0.7043
  445CHL1  H18A61172   4.390   0.857   4.832  1.9126 -1.4293  1.3845
  445CHL1  H18B61173   4.227   0.808   4.775  1.7470  2.3505 -1.9782
  445CHL1  H18C61174   4.255   0.860   4.941 -1.1383 -1.4904 -0.0257
  445CHL1   C1261175   4.227   0.580   4.959  0.1958  0.1874  0.0994
  445CHL1  H12A61176   4.144   0.583   4.885 -1.4095  0.6309  1.8524
  445CHL1  H12B61177   4.253   0.476   4.989  1.5649  0.6932  0.7871
  445CHL1   C1161178   4.176   0.649   5.097  0.5244 -0.2136 -0.4985
  445CHL1  H11A61179   4.143   0.751   5.066  1.4223 -0.1743 -1.3938
  445CHL1  H11B61180   4.082   0.599   5.129  0.7837 -0.7920 -0.6381
  445CHL1    C961181   4.290   0.664   5.197  0.5190 -0.2943 -0.4630
  445CHL1    H961182   4.319   0.561   5.228 -1.5761 -0.1368  2.3714
  445CHL1   C1061183   4.247   0.727   5.334 -0.4332 -0.5532 -0.0067
  445CHL1   C1961184   4.176   0.863   5.317 -0.0410  0.2350 -0.2861
  445CHL1  H19A61185   4.220   0.936   5.245  1.1238 -1.0259 -0.8983
  445CHL1  H19B61186   4.068   0.858   5.291  0.2018 -0.4282 -1.2341
  445CHL1  H19C61187   4.184   0.924   5.409  1.1366  1.5726 -1.2229
  445CHL1    C161188   4.151   0.632   5.401  0.9974 -0.3794 -0.4849
  445CHL1   H1A61189   4.051   0.638   5.353  1.5991 -0.7633 -1.8279
  445CHL1   H1B61190   4.184   0.528   5.377  2.1638  0.7332 -4.4018
  445CHL1    C261191   4.130   0.646   5.555  0.1306 -0.3721  0.2799
  445CHL1   H2A61192   4.070   0.558   5.588 -2.0473 -0.1550 -2.7257
  445CHL1   H2B61193   4.082   0.743   5.581 -1.3600 -1.3235  1.2458
  445CHL1   C2061194   4.358   0.539   4.661 -0.4156  0.3345 -0.7994
  445CHL1   H2061195   4.252   0.527   4.691 -0.3689 -1.6404 -1.2660
  445CHL1   C2161196   4.424   0.400   4.631 -0.7240  0.6710  0.1552
  445CHL1  H21A61197   4.525   0.401   4.587 -1.2123  0.1658 -1.0254
  445CHL1  H21B61198   4.376   0.358   4.540  0.1302  0.2142 -0.0898
  445CHL1  H21C61199   4.414   0.336   4.721  2.6879  2.1343  1.7607
  445CHL1   C2261200   4.375   0.632   4.538 -0.0326  0.1952  0.0470
  445CHL1  H22A61201   4.362   0.738   4.569  1.0049  0.4404 -0.3235
  445CHL1  H22B61202   4.475   0.622   4.491  0.1543  0.4546  0.3817
  445CHL1   C2361203   4.279   0.600   4.426 -0.2400  0.2908 -0.0395
  445CHL1  H23A61204   4.292   0.493   4.399  2.6853  0.1520  1.5301
  445CHL1  H23B61205   4.174   0.602   4.463  0.1558 -1.2440  1.2682
  445CHL1   C2461206   4.306   0.671   4.295  0.4917  0.3573  0.0513
  445CHL1  H24A61207   4.262   0.773   4.294  2.3725  1.2343 -1.4115
  445CHL1  H24B61208   4.417   0.676   4.284  0.4273  0.2123 -0.6667
  445CHL1   C2561209   4.256   0.596   4.174 -1.3949  0.1286 -0.4882
  445CHL1   H2561210   4.303   0.496   4.189 -1.2519  0.4857  2.0002
  445CHL1   C2661211   4.108   0.582   4.177  0.3459 -0.2705  0.5424
  445CHL1  H26A61212   4.083   0.496   4.110  3.2033 -2.2848  1.8869
  445CHL1  H26B61213   4.062   0.551   4.273 -2.5931  0.3663 -0.5368
  445CHL1  H26C61214   4.053   0.674   4.146 -1.4470 -1.1314  1.0394
  445CHL1   C2761215   4.303   0.659   4.047 -0.4406  0.1020 -0.1544
  445CHL1  H27A61216   4.407   0.694   4.065 -0.8564  1.9102 -1.0769
  445CHL1  H27B61217   4.284   0.593   3.960 -2.4843  0.0666  0.2774
  445CHL1  H27C61218   4.241   0.749   4.030  0.7950  1.2168  0.9560
  446CHL1    C361219   8.240  10.277   5.370 -0.0195 -0.1831  0.4756
  446CHL1    H361220   8.319  10.349   5.338  0.3928 -1.4564 -1.5555
  446CHL1    O361221   8.217  10.324   5.503 -0.4081  0.3443 -0.2220
  446CHL1   H3'61222   8.180  10.250   5.551  4.0190 -0.9699  1.7441
  446CHL1    C461223   8.118  10.300   5.283  0.0226 -0.6505  0.4790
  446CHL1   H4A61224   8.033  10.246   5.330 -0.2232  1.2261  2.3269
  446CHL1   H4B61225   8.085  10.405   5.296 -1.1953 -1.2545  2.7570
  446CHL1    C561226   8.143  10.254   5.138 -0.2007 -0.3486 -0.4979
  446CHL1    C661227   8.113  10.336   5.036 -0.0349 -0.4453 -0.8974
  446CHL1    H661228   8.071  10.437   5.054  1.0363  0.2280 -2.0634
  446CHL1    C761229   8.128  10.288   4.897  0.2889 -0.6125  0.8249
  446CHL1   H7A61230   8.030  10.313   4.850  1.1626  3.8399  0.9088
  446CHL1   H7B61231   8.214  10.345   4.856 -1.0019  1.5851  1.0112
  446CHL1    C861232   8.146  10.133   4.877 -0.0985  0.7561  0.2374
  446CHL1    H861233   8.048  10.085   4.900  0.0548  0.8784  1.1559
  446CHL1   C1461234   8.186  10.099   4.736 -0.2846  0.8960 -0.0063
  446CHL1   H1461235   8.283  10.150   4.715 -0.0418  0.9452  1.1609
  446CHL1   C1561236   8.085  10.132   4.628  0.1330 -0.9885  0.1221
  446CHL1  H15A61237   7.989  10.083   4.652 -1.3455  0.6267 -2.1153
  446CHL1  H15B61238   8.061  10.240   4.623 -2.2589 -1.4939 -0.7262
  446CHL1   C1661239   8.142  10.059   4.507  0.8842 -0.1080 -1.0474
  446CHL1  H16A61240   8.055  10.026   4.448 -1.4905  1.5377  1.3207
  446CHL1  H16B61241   8.201  10.136   4.454  1.6325  0.1258  0.0740
  446CHL1   C1761242   8.249   9.957   4.561  0.3903  0.6062  0.2059
  446CHL1   H1761243   8.342  10.016   4.547  0.9254 -0.3409 -0.3405
  446CHL1   C1361244   8.224   9.948   4.713  0.4970  0.0157  0.2963
  446CHL1   C1861245   8.098   9.857   4.748  0.3002  0.3292 -0.3326
  446CHL1  H18A61246   8.119   9.752   4.721 -4.5068 -0.6240 -1.3652
  446CHL1  H18B61247   8.082   9.857   4.858 -1.9167 -1.7490 -0.5663
  446CHL1  H18C61248   8.016   9.883   4.677  0.3727  0.7950 -0.2541
  446CHL1   C1261249   8.355   9.928   4.798 -0.3511  0.0683  0.4639
  446CHL1  H12A61250   8.412   9.833   4.789  0.1394  0.3378  0.6771
  446CHL1  H12B61251   8.425  10.009   4.768 -2.7641  1.3074 -2.3276
  446CHL1   C1161252   8.324   9.949   4.946 -0.0057  0.2576  0.1536
  446CHL1  H11A61253   8.266   9.858   4.970 -0.1607  0.2752 -0.1391
  446CHL1  H11B61254   8.419   9.970   5.000  0.8192 -0.4060 -1.0043
  446CHL1    C961255   8.248  10.084   4.978 -0.0481 -0.0742  0.4539
  446CHL1    H961256   8.329  10.159   4.970 -0.1884  0.3370  2.5044
  446CHL1   C1061257   8.195  10.105   5.114 -0.2187  0.6593 -0.5317
  446CHL1   C1961258   8.089  10.000   5.150  0.9928  0.0883 -0.1955
  446CHL1  H19A61259   7.991   9.998   5.097 -0.3814  1.2233  2.1292
  446CHL1  H19B61260   8.132   9.898   5.136 -0.2678 -0.5910  0.6772
  446CHL1  H19C61261   8.059  10.007   5.257 -2.8981 -0.6482 -1.0901
  446CHL1    C161262   8.313  10.088   5.220 -0.1321  0.2898  0.0872
  446CHL1   H1A61263   8.326   9.979   5.232  1.3800  0.2713 -1.3545
  446CHL1   H1B61264   8.402  10.130   5.168 -1.0233  0.8750 -1.0145
  446CHL1    C261265   8.303  10.143   5.367 -0.5294 -0.0343 -0.2576
  446CHL1   H2A61266   8.403  10.138   5.415 -0.2796  0.9265 -0.6607
  446CHL1   H2B61267   8.244  10.062   5.416  0.1277 -0.3069  0.1021
  446CHL1   C2061268   8.260   9.821   4.482 -0.0630  0.0299 -0.1786
  446CHL1   H2061269   8.158   9.777   4.491 -0.0454  0.1427  0.6438
  446CHL1   C2161270   8.357   9.716   4.539  0.0976  0.4661 -0.2977
  446CHL1  H21A61271   8.322   9.702   4.643 -0.9616  0.8961 -0.5794
  446CHL1  H21B61272   8.463   9.748   4.551  0.0349 -0.1626  2.6834
  446CHL1  H21C61273   8.346   9.623   4.479 -0.3583  0.1975  0.2017
  446CHL1   C2261274   8.283   9.835   4.332  0.1235 -0.6611  0.2624
  446CHL1  H22A61275   8.264   9.740   4.277 -0.6362  0.6283 -1.7974
  446CHL1  H22B61276   8.207   9.909   4.299 -0.4430 -1.4942 -0.3256
  446CHL1   C2361277   8.425   9.878   4.295  1.0437  0.1997 -0.0983
  446CHL1  H23A61278   8.444   9.972   4.351 -2.9783  0.7117  0.7113
  446CHL1  H23B61279   8.494   9.796   4.325  2.0859  0.2551 -2.1501
  446CHL1   C2461280   8.451   9.896   4.143  0.1398  0.0132 -0.1258
  446CHL1  H24A61281   8.421   9.803   4.090  0.9764 -0.2849 -0.0869
  446CHL1  H24B61282   8.386   9.977   4.104  0.9995  0.3394 -0.8986
  446CHL1   C2561283   8.596   9.944   4.106 -0.2178  0.0068 -0.1605
  446CHL1   H2561284   8.618  10.033   4.168 -0.2681  0.1851 -0.3981
  446CHL1   C2661285   8.706   9.835   4.137  0.7161 -0.3431 -0.6615
  446CHL1  H26A61286   8.808   9.879   4.127  1.0016 -1.0830 -1.0703
  446CHL1  H26B61287   8.701   9.806   4.244  1.5432  1.1279 -0.1903
  446CHL1  H26C61288   8.689   9.746   4.073 -0.1740 -0.4056 -0.3603
  446CHL1   C2761289   8.598   9.986   3.961  0.2086 -0.4900  0.6128
  446CHL1  H27A61290   8.580   9.894   3.903 -0.1615  0.4554 -0.8252
  446CHL1  H27B61291   8.518  10.061   3.942  1.1799  0.3202 -0.4419
  446CHL1  H27C61292   8.697  10.030   3.933  1.0812 -2.7001  0.0608
  447CHL1    C361293   7.377   6.401   5.266 -0.2182  0.2488  1.3311
  447CHL1    H361294   7.372   6.290   5.263 -0.0567  0.2500  1.0150
  447CHL1    O361295   7.427   6.419   5.392 -0.2835  0.1759 -0.4240
  447CHL1   H3'61296   7.424   6.513   5.409 -1.5554 -0.1464  1.5302
  447CHL1    C461297   7.480   6.447   5.156  0.1788 -0.0026  0.1634
  447CHL1   H4A61298   7.491   6.557   5.165  0.8256 -0.0183 -0.3050
  447CHL1   H4B61299   7.578   6.399   5.177 -0.9270 -1.7912  1.5352
  447CHL1    C561300   7.431   6.425   5.014 -0.2147  0.2589  0.6619
  447CHL1    C661301   7.510   6.384   4.914  0.1225  0.0397  0.1941
  447CHL1    H661302   7.618   6.374   4.933  0.2786  1.2693  0.0340
  447CHL1    C761303   7.463   6.363   4.774  0.6239 -0.3255 -0.4289
  447CHL1   H7A61304   7.524   6.402   4.690  0.6160  0.5361 -0.0459
  447CHL1   H7B61305   7.467   6.252   4.771 -0.6359 -0.5056  1.7850
  447CHL1    C861306   7.315   6.395   4.740 -0.5172  0.1175  0.2286
  447CHL1    H861307   7.323   6.505   4.723  2.9045  0.1327  1.2341
  447CHL1   C1461308   7.255   6.324   4.622 -0.9177  0.2281  0.0875
  447CHL1   H1461309   7.246   6.220   4.662  4.5318 -0.4932  0.2183
  447CHL1   C1561310   7.345   6.318   4.495  0.4701  0.6075  0.0939
  447CHL1  H15A61311   7.378   6.415   4.452  1.9189 -0.3158 -0.9462
  447CHL1  H15B61312   7.430   6.247   4.500  0.4797  0.5831 -0.3450
  447CHL1   C1661313   7.238   6.260   4.390 -0.5566 -0.4097  0.2473
  447CHL1  H16A61314   7.225   6.328   4.304  1.1683 -0.6798 -0.2738
  447CHL1  H16B61315   7.251   6.159   4.343 -3.2124 -0.2846 -0.8875
  447CHL1   C1761316   7.096   6.261   4.453 -0.0409  0.1522  0.5431
  447CHL1   H1761317   7.076   6.160   4.495 -1.9846 -0.0828 -0.8098
  447CHL1   C1361318   7.116   6.361   4.572  0.2382  0.2619  0.4394
  447CHL1   C1861319   7.126   6.502   4.511 -0.0894  0.1783 -0.1832
  447CHL1  H18A61320   7.029   6.554   4.503 -0.7387 -0.9840 -0.0309
  447CHL1  H18B61321   7.197   6.566   4.568  0.0395  0.0017 -0.1430
  447CHL1  H18C61322   7.178   6.504   4.413 -1.8255  1.7458 -1.1265
  447CHL1   C1261323   7.027   6.344   4.696 -0.8269 -0.0572  0.0667
  447CHL1  H12A61324   6.924   6.373   4.665 -0.6852  0.7225  0.3086
  447CHL1  H12B61325   7.019   6.240   4.734  0.6768  0.0695  0.7899
  447CHL1   C1161326   7.081   6.431   4.811 -0.1555  0.5000 -0.1688
  447CHL1  H11A61327   7.084   6.538   4.778 -0.2057  0.4736 -0.2605
  447CHL1  H11B61328   7.011   6.428   4.897 -1.6566 -3.6181 -1.3160
  447CHL1    C961329   7.219   6.381   4.855  0.9323  0.1774  0.3437
  447CHL1    H961330   7.211   6.272   4.874 -0.7161  0.1711 -0.2406
  447CHL1   C1061331   7.279   6.454   4.987 -0.2366  0.5256 -1.2060
  447CHL1   C1961332   7.267   6.609   4.974 -0.6002 -1.0667 -0.9117
  447CHL1  H19A61333   7.305   6.647   4.877 -1.2271 -0.6761 -1.0101
  447CHL1  H19B61334   7.164   6.650   4.975 -0.5871 -1.0382 -0.1194
  447CHL1  H19C61335   7.319   6.661   5.058  0.2063 -2.4592 -0.5083
  447CHL1    C161336   7.186   6.427   5.113 -0.2956  0.1100  0.9995
  447CHL1   H1A61337   7.091   6.477   5.084 -1.2216 -2.1857 -0.2369
  447CHL1   H1B61338   7.165   6.318   5.116  0.7849 -0.1053  1.1621
  447CHL1    C261339   7.246   6.471   5.245  0.5058 -0.0606 -0.2904
  447CHL1   H2A61340   7.176   6.438   5.325 -0.0608  0.6451 -0.4801
  447CHL1   H2B61341   7.249   6.582   5.250 -0.3111  0.1120 -2.3825
  447CHL1   C2061342   6.988   6.279   4.347 -0.4337  0.6918  0.3527
  447CHL1   H2061343   7.008   6.373   4.292  0.3597  1.1891  1.4460
  447CHL1   C2161344   6.844   6.279   4.411 -0.2180  0.3322 -0.3123
  447CHL1  H21A61345   6.760   6.271   4.338 -1.1154 -2.9694  0.9260
  447CHL1  H21B61346   6.846   6.376   4.466  1.3899  0.9550 -1.3686
  447CHL1  H21C61347   6.833   6.204   4.491 -0.5643 -0.0273 -0.6964
  447CHL1   C2261348   6.995   6.176   4.238  0.3488  0.2295  0.2550
  447CHL1  H22A61349   7.091   6.181   4.182 -0.9015  1.3260 -1.9339
  447CHL1  H22B61350   6.997   6.074   4.283  1.7540  0.5481  0.9663
  447CHL1   C2361351   6.896   6.183   4.117  0.7017  0.5930  0.3782
  447CHL1  H23A61352   6.793   6.173   4.157  0.0820 -0.1169 -1.3047
  447CHL1  H23B61353   6.907   6.281   4.065 -0.6576  1.4916  1.6882
  447CHL1   C2461354   6.933   6.072   4.014 -0.5199  0.7197  1.2978
  447CHL1  H24A61355   7.032   6.107   3.978 -0.5811 -1.0426 -0.7654
  447CHL1  H24B61356   6.932   5.974   4.066  2.3517  0.5693  1.1914
  447CHL1   C2561357   6.839   6.064   3.892  0.5053  0.3483  0.4145
  447CHL1   H2561358   6.739   6.064   3.941  0.4897 -1.8267  0.4866
  447CHL1   C2661359   6.836   6.187   3.805  0.0148  0.1840 -0.6701
  447CHL1  H26A61360   6.922   6.196   3.735  0.6444 -1.0387 -0.0780
  447CHL1  H26B61361   6.745   6.198   3.742  0.7343  2.8450 -1.3795
  447CHL1  H26C61362   6.846   6.275   3.872  0.1634  0.3442 -0.9048
  447CHL1   C2761363   6.873   5.935   3.811 -0.5707  0.0411  0.1524
  447CHL1  H27A61364   6.860   5.840   3.867 -0.0921 -0.3979 -0.4486
  447CHL1  H27B61365   6.807   5.928   3.722 -0.4071  0.0984  0.0259
  447CHL1  H27C61366   6.973   5.945   3.762 -1.3469  1.7755 -1.1909
  448CHL1    C361367   5.854   3.394   5.071  0.0102 -0.0512 -0.0135
  448CHL1    H361368   5.962   3.369   5.063  0.2147  0.5209  0.7341
  448CHL1    O361369   5.804   3.345   5.195 -0.6497  0.2930  0.2776
  448CHL1   H3'61370   5.712   3.371   5.200 -0.9205 -0.3393 -0.8551
  448CHL1    C461371   5.840   3.553   5.063 -0.1124 -0.1472 -0.3137
  448CHL1   H4A61372   5.739   3.591   5.089  0.8295  0.9180  2.1749
  448CHL1   H4B61373   5.901   3.591   5.148 -0.7268  2.2696 -0.8652
  448CHL1    C561374   5.894   3.604   4.928 -0.8428 -0.9323 -0.4637
  448CHL1    C661375   5.981   3.702   4.931 -0.7241 -0.2126  0.0541
  448CHL1    H661376   6.019   3.749   5.023 -0.0695  1.1244 -0.8733
  448CHL1    C761377   6.028   3.775   4.808 -0.6023 -0.0709 -0.6684
  448CHL1   H7A61378   6.034   3.885   4.817  2.5082  0.0424 -2.5215
  448CHL1   H7B61379   6.132   3.743   4.785 -0.1415  1.5014 -0.8605
  448CHL1    C861380   5.945   3.735   4.688 -0.2187 -0.4847 -0.5190
  448CHL1    H861381   5.858   3.804   4.689  1.3135  1.5350 -0.7006
  448CHL1   C1461382   6.023   3.762   4.562  0.5975 -0.5373 -0.1205
  448CHL1   H1461383   6.104   3.687   4.576  0.8872  0.0449  1.6641
  448CHL1   C1561384   6.093   3.901   4.535 -0.0270  0.5061 -0.7470
  448CHL1  H15A61385   6.020   3.983   4.554 -1.8280 -1.2738  0.4989
  448CHL1  H15B61386   6.175   3.918   4.607 -1.4885 -0.3831  1.2387
  448CHL1   C1661387   6.133   3.894   4.390 -0.1252 -0.5011 -0.5988
  448CHL1  H16A61388   6.094   3.993   4.357 -0.9452 -0.4704  0.3871
  448CHL1  H16B61389   6.244   3.892   4.382  0.0806  0.2008  1.4330
  448CHL1   C1761390   6.055   3.778   4.325  0.1245 -0.6775 -0.0148
  448CHL1   H1761391   6.128   3.694   4.325  0.1065 -0.6949 -0.9322
  448CHL1   C1361392   5.954   3.732   4.429 -0.0243 -0.9376 -0.3332
  448CHL1   C1861393   5.821   3.818   4.418  0.3195  0.2794 -0.7366
  448CHL1  H18A61394   5.840   3.926   4.432 -1.2026  0.3955  0.8650
  448CHL1  H18B61395   5.765   3.785   4.328 -1.3433  1.6791 -0.2639
  448CHL1  H18C61396   5.754   3.786   4.501  0.8566 -1.1184 -0.8194
  448CHL1   C1261397   5.930   3.585   4.420 -0.3632 -0.4957  0.0662
  448CHL1  H12A61398   5.875   3.563   4.326 -0.3031 -0.9372  0.1283
  448CHL1  H12B61399   6.027   3.530   4.423 -0.3537 -0.4847 -0.0445
  448CHL1   C1161400   5.849   3.532   4.548 -0.3377 -0.3807  0.4888
  448CHL1  H11A61401   5.741   3.554   4.532 -0.1043 -1.0203 -2.8405
  448CHL1  H11B61402   5.861   3.421   4.547 -2.3199 -0.8248  4.7994
  448CHL1    C961403   5.911   3.583   4.685  0.0683 -0.7681  0.7213
  448CHL1    H961404   6.007   3.528   4.686  0.3805 -0.3200 -0.7867
  448CHL1   C1061405   5.830   3.538   4.807  0.1147  0.4859 -0.2282
  448CHL1   C1961406   5.678   3.584   4.798 -0.0605  0.4138  0.0739
  448CHL1  H19A61407   5.671   3.688   4.759 -1.2862  0.1470 -0.4623
  448CHL1  H19B61408   5.619   3.522   4.728 -1.8079  1.8066  0.2364
  448CHL1  H19C61409   5.620   3.583   4.893 -1.1679 -1.3693 -0.5679
  448CHL1    C161410   5.837   3.388   4.819  0.0488 -0.6532 -0.4717
  448CHL1   H1A61411   5.792   3.351   4.724  1.5595  0.2489 -1.5795
  448CHL1   H1B61412   5.938   3.342   4.817  0.1997 -0.3931 -2.9169
  448CHL1    C261413   5.779   3.335   4.950 -0.2377 -0.3055 -0.4385
  448CHL1   H2A61414   5.788   3.224   4.955  0.1586 -0.2086  2.5016
  448CHL1   H2B61415   5.671   3.354   4.962  0.0257  1.1933 -0.1618
  448CHL1   C2061416   6.005   3.788   4.180  0.3045 -0.4963 -0.1320
  448CHL1   H2061417   5.916   3.724   4.163 -1.0680  1.5310 -0.9270
  448CHL1   C2161418   6.111   3.724   4.084  0.1487 -0.2007 -0.2149
  448CHL1  H21A61419   6.204   3.776   4.055  1.9931 -3.6294 -1.0264
  448CHL1  H21B61420   6.055   3.707   3.989 -0.6525 -0.5861  0.3173
  448CHL1  H21C61421   6.150   3.628   4.124  0.3363  0.1695  0.5062
  448CHL1   C2261422   5.960   3.928   4.132 -0.2401 -0.1823  0.2466
  448CHL1  H22A61423   5.914   3.988   4.213  1.4289 -0.9939  1.8548
  448CHL1  H22B61424   6.054   3.976   4.096 -1.6511  1.2212 -1.8448
  448CHL1   C2361425   5.872   3.929   4.003  0.1960  0.6850  0.3949
  448CHL1  H23A61426   5.927   3.871   3.926 -1.1661 -1.5321  0.9826
  448CHL1  H23B61427   5.784   3.866   4.027 -0.0655  1.2413  0.9312
  448CHL1   C2461428   5.841   4.070   3.963 -0.3045  0.2088  0.6776
  448CHL1  H24A61429   5.795   4.113   4.054 -2.4546  1.4447 -0.9053
  448CHL1  H24B61430   5.933   4.119   3.924 -0.0269 -2.6644 -2.8367
  448CHL1   C2561431   5.738   4.079   3.846 -0.1071 -0.5298 -0.5594
  448CHL1   H2561432   5.649   4.018   3.871  1.0609 -1.3341  2.0685
  448CHL1   C2661433   5.695   4.222   3.808 -0.3656 -0.4696  0.3488
  448CHL1  H26A61434   5.636   4.273   3.887 -0.1535 -0.2714  0.3834
  448CHL1  H26B61435   5.787   4.274   3.772 -0.8579  1.0952  1.2120
  448CHL1  H26C61436   5.624   4.211   3.723  1.3170  1.5191 -1.4477
  448CHL1   C2761437   5.801   4.007   3.718  0.4527  0.0409 -0.3622
  448CHL1  H27A61438   5.901   4.055   3.709 -0.1522  1.3819 -0.1681
  448CHL1  H27B61439   5.800   3.896   3.711 -1.1513 -0.1591  1.8265
  448CHL1  H27C61440   5.746   4.044   3.629  2.6159  2.6428 -0.7227
  449CHL1    C361441   4.650   0.319   5.568  0.4713  1.0919  0.0484
  449CHL1    H361442   4.577   0.244   5.607  0.5978  0.0441 -1.5856
  449CHL1    O361443   4.709   0.385   5.669  0.1307  0.1668 -0.5509
  449CHL1   H3'61444   4.739   0.474   5.647  2.0486  0.2070  1.8089
  449CHL1    C461445   4.755   0.238   5.494  0.2126 -0.2690  0.0816
  449CHL1   H4A61446   4.842   0.301   5.465  1.9222 -1.5557  2.0854
  449CHL1   H4B61447   4.803   0.166   5.564  0.3450 -0.3448 -0.0855
  449CHL1    C561448   4.706   0.165   5.372  0.2306 -0.0151 -0.9811
  449CHL1    C661449   4.720   0.037   5.353 -0.0470 -0.1291 -0.3106
  449CHL1    H661450   4.781  -0.011   5.430 -0.2318 -0.4880 -0.3835
  449CHL1    C761451   4.672  -0.041   5.230  0.4455 -0.1547  0.3322
  449CHL1   H7A61452   4.749  -0.112   5.193  1.1970  0.7638  0.0856
  449CHL1   H7B61453   4.580  -0.095   5.260 -1.0293  1.9731 -0.1527
  449CHL1    C861454   4.621   0.048   5.120  0.2623 -0.5594  0.4091
  449CHL1    H861455   4.713   0.090   5.074  0.4483 -2.0287 -0.6250
  449CHL1   C1461456   4.549  -0.034   5.010  0.1986 -0.1774 -0.2508
  449CHL1   H1461457   4.455  -0.072   5.057 -0.0033  0.9453  0.2805
  449CHL1   C1561458   4.607  -0.157   4.944 -0.0085  0.5791 -0.6361
  449CHL1  H15A61459   4.712  -0.132   4.919  0.7765  0.1729  1.9578
  449CHL1  H15B61460   4.608  -0.240   5.018  1.4752 -0.0371 -1.3158
  449CHL1   C1661461   4.511  -0.181   4.825  0.1639  0.2468 -0.1221
  449CHL1  H16A61462   4.564  -0.187   4.728 -0.2268 -0.7069 -0.2854
  449CHL1  H16B61463   4.446  -0.270   4.840  2.2172 -1.6476 -1.7870
  449CHL1   C1761464   4.422  -0.060   4.808  0.0155 -0.4456 -0.2885
  449CHL1   H1761465   4.330  -0.080   4.868 -0.5764  1.7067 -0.3762
  449CHL1   C1361466   4.493   0.049   4.892  0.8752 -0.8978 -0.1878
  449CHL1   C1861467   4.601   0.116   4.810 -0.2747  0.1878  0.1173
  449CHL1  H18A61468   4.565   0.172   4.721  1.4630 -0.3173 -0.9532
  449CHL1  H18B61469   4.673   0.180   4.865 -0.4894  1.4389 -0.9916
  449CHL1  H18C61470   4.660   0.032   4.768 -1.0489 -0.0450 -0.5224
  449CHL1   C1261471   4.393   0.158   4.951 -0.7080  0.4629  0.5194
  449CHL1  H12A61472   4.357   0.234   4.878  1.0788 -1.2539 -2.3054
  449CHL1  H12B61473   4.314   0.101   5.004 -0.2660  0.2551  0.9641
  449CHL1   C1161474   4.460   0.236   5.064 -0.3258 -0.2720  0.2624
  449CHL1  H11A61475   4.525   0.318   5.025 -0.5322 -0.7416 -1.1348
  449CHL1  H11B61476   4.380   0.291   5.118  0.0979 -0.4770  1.1068
  449CHL1    C961477   4.539   0.163   5.175 -0.0592  0.5077 -0.8187
  449CHL1    H961478   4.453   0.112   5.223  1.1983 -0.4710  0.5079
  449CHL1   C1061479   4.621   0.249   5.280 -0.1773 -0.0173  0.5401
  449CHL1   C1961480   4.720   0.348   5.214 -0.1868 -0.1433 -0.2274
  449CHL1  H19A61481   4.777   0.413   5.282 -0.2561 -0.5416  0.2148
  449CHL1  H19B61482   4.791   0.289   5.152 -0.9438 -1.9816  0.5807
  449CHL1  H19C61483   4.663   0.422   5.153  0.6876 -1.3966 -2.7045
  449CHL1    C161484   4.509   0.329   5.358 -0.0905  0.2988  0.1501
  449CHL1   H1A61485   4.463   0.399   5.285 -1.3740 -1.9383 -1.3071
  449CHL1   H1B61486   4.429   0.262   5.394 -1.4328 -0.4920 -3.7835
  449CHL1    C261487   4.571   0.414   5.472  0.3630  0.2974  0.2649
  449CHL1   H2A61488   4.491   0.460   5.534 -0.9080  0.4086 -1.4019
  449CHL1   H2B61489   4.638   0.490   5.427 -0.2168  1.8455  1.8956
  449CHL1   C2061490   4.362  -0.031   4.668 -0.3510 -0.7461 -0.4662
  449CHL1   H2061491   4.323   0.071   4.687 -0.0524 -0.9719  1.6348
  449CHL1   C2161492   4.235  -0.118   4.634 -0.4988 -0.4041  0.0990
  449CHL1  H21A61493   4.265  -0.223   4.615  0.2759 -0.3453  0.9482
  449CHL1  H21B61494   4.191  -0.076   4.541  1.8224  0.7557 -0.5583
  449CHL1  H21C61495   4.160  -0.135   4.714 -0.1810  1.0603  0.7504
  449CHL1   C2261496   4.462  -0.032   4.546  0.0142 -1.0701 -0.4931
  449CHL1  H22A61497   4.556   0.012   4.585 -0.4796 -1.8854  1.8186
  449CHL1  H22B61498   4.483  -0.139   4.522  0.7804 -1.1836  0.5867
  449CHL1   C2361499   4.426   0.053   4.428  0.6941 -0.2300 -0.4338
  449CHL1  H23A61500   4.339  -0.000   4.384  1.9262 -0.7747 -2.3368
  449CHL1  H23B61501   4.403   0.156   4.462  1.2420 -0.3817  0.4214
  449CHL1   C2461502   4.542   0.066   4.317  0.2286 -0.0556 -0.2567
  449CHL1  H24A61503   4.635   0.092   4.372 -0.1559  0.4000  0.1909
  449CHL1  H24B61504   4.543  -0.037   4.276  0.9079 -0.9063  1.7457
  449CHL1   C2561505   4.521   0.162   4.199  0.7603 -0.1362  0.8539
  449CHL1   H2561506   4.619   0.155   4.147 -0.6688 -0.0982 -2.0330
  449CHL1   C2661507   4.399   0.103   4.124  0.1024 -0.7932  0.3207
  449CHL1  H26A61508   4.314   0.080   4.192  0.8570 -1.3189  1.1050
  449CHL1  H26B61509   4.355   0.174   4.050  0.6653 -0.3266  0.4263
  449CHL1  H26C61510   4.418   0.004   4.078 -3.4148 -3.1166  3.3002
  449CHL1   C2761511   4.518   0.314   4.236  0.0244 -0.9276  0.3503
  449CHL1  H27A61512   4.502   0.378   4.147 -1.2301  0.1930  1.3475
  449CHL1  H27B61513   4.434   0.335   4.305 -0.0096  1.3938 -0.3151
  449CHL1  H27C61514   4.617   0.331   4.283  1.9805 -0.7030 -3.4378
  450CHL1    C361515   8.811   9.296   5.311  0.1820 -0.2211 -0.0394
  450CHL1    H361516   8.772   9.204   5.360  1.8596 -0.8385  0.2006
  450CHL1    O361517   8.828   9.399   5.413 -0.0594 -0.8542 -0.0685
  450CHL1   H3'61518   8.898   9.368   5.471 -0.1651 -1.3196 -0.1860
  450CHL1    C461519   8.948   9.266   5.252  0.8582  0.4253  0.1833
  450CHL1   H4A61520   8.991   9.361   5.215  0.1791  0.5418 -0.3405
  450CHL1   H4B61521   9.020   9.233   5.330  2.0891  4.2834  0.8765
  450CHL1    C561522   8.937   9.159   5.140  0.0423 -0.2316  0.0665
  450CHL1    C661523   8.995   9.045   5.147  0.2175 -0.4026  0.5208
  450CHL1    H661524   9.049   9.018   5.239 -1.0883  2.1549  2.1354
  450CHL1    C761525   9.000   8.948   5.025 -0.0607 -0.3871 -0.7914
  450CHL1   H7A61526   9.105   8.918   5.007  0.9274  2.6926 -0.8769
  450CHL1   H7B61527   8.957   8.851   5.056 -1.7093  1.1557  2.2603
  450CHL1    C861528   8.943   8.995   4.895  0.0877 -0.3509 -0.3840
  450CHL1    H861529   9.017   9.053   4.835  2.2406 -2.3320  0.2202
  450CHL1   C1461530   8.896   8.882   4.813  0.3352  0.4053  0.7726
  450CHL1   H1461531   8.828   8.827   4.882 -0.7856  1.5525  0.6068
  450CHL1   C1561532   8.997   8.777   4.774  0.2937  0.9221 -0.1841
  450CHL1  H15A61533   9.077   8.828   4.716  0.6304  1.0191  0.3560
  450CHL1  H15B61534   9.031   8.729   4.868  0.9454  0.3083 -0.7182
  450CHL1   C1661535   8.914   8.681   4.685  0.5096  1.3930  0.3966
  450CHL1  H16A61536   8.977   8.637   4.605  0.0595 -0.8893  1.2013
  450CHL1  H16B61537   8.884   8.590   4.742  1.6333  0.1960 -0.8564
  450CHL1   C1761538   8.786   8.758   4.643  0.5026 -0.1663  0.0604
  450CHL1   H1761539   8.699   8.722   4.703  0.0664 -0.2852 -0.6226
  450CHL1   C1361540   8.812   8.904   4.684 -0.2014  0.5565 -0.0750
  450CHL1   C1861541   8.908   8.969   4.579  0.3790 -0.2594 -0.3932
  450CHL1  H18A61542   8.958   9.058   4.624 -1.5799  0.4122  0.5421
  450CHL1  H18B61543   8.996   8.911   4.544 -0.1653 -0.4150 -1.5624
  450CHL1  H18C61544   8.842   9.001   4.496  1.4674 -1.3341 -1.7297
  450CHL1   C1261545   8.703   8.994   4.710 -0.9608 -0.4071  0.4010
  450CHL1  H12A61546   8.648   9.027   4.619 -2.7813 -1.6259  1.0191
  450CHL1  H12B61547   8.626   8.941   4.771 -2.3258 -0.5823 -1.4014
  450CHL1   C1161548   8.743   9.120   4.797  0.1273 -0.7623  0.7583
  450CHL1  H11A61549   8.809   9.183   4.734  0.3255 -0.3669  1.3600
  450CHL1  H11B61550   8.655   9.183   4.825  1.9363  0.8695  3.1295
  450CHL1    C961551   8.821   9.077   4.925  0.4339 -0.1787 -0.3299
  450CHL1    H961552   8.752   9.014   4.985 -1.2283  0.0753 -1.8875
  450CHL1   C1061553   8.848   9.201   5.025  0.6214 -0.3775  0.1236
  450CHL1   C1961554   8.921   9.316   4.956 -0.1403  0.3954 -0.1612
  450CHL1  H19A61555   8.922   9.404   5.023  1.0425  1.0161 -0.9694
  450CHL1  H19B61556   9.024   9.288   4.925  0.3475  1.0121  0.8448
  450CHL1  H19C61557   8.867   9.347   4.864  0.1422  0.2895 -0.3639
  450CHL1    C161558   8.713   9.257   5.079  0.9031 -0.0292  0.1121
  450CHL1   H1A61559   8.670   9.316   4.995  0.7806  0.7235  0.6924
  450CHL1   H1B61560   8.647   9.171   5.099 -1.5439  2.1866  2.3724
  450CHL1    C261561   8.710   9.342   5.209 -0.7013 -0.5372  0.8352
  450CHL1   H2A61562   8.609   9.353   5.254 -1.0332 -1.3958  0.3162
  450CHL1   H2B61563   8.741   9.442   5.172 -0.0142 -1.7213 -2.1273
  450CHL1   C2061564   8.732   8.733   4.492 -0.4840 -0.2955 -0.1806
  450CHL1   H2061565   8.814   8.766   4.425  0.0701 -1.1160  0.0680
  450CHL1   C2161566   8.603   8.813   4.464  0.1254  0.1505 -0.0164
  450CHL1  H21A61567   8.631   8.920   4.455  0.5588  0.1297  0.8890
  450CHL1  H21B61568   8.534   8.797   4.550  1.1806  4.3547  1.8410
  450CHL1  H21C61569   8.553   8.769   4.375 -0.0682 -1.7078  0.9603
  450CHL1   C2261570   8.707   8.581   4.483 -0.2639  0.4103  0.2529
  450CHL1  H22A61571   8.803   8.535   4.515 -0.4066 -0.2975 -0.3028
  450CHL1  H22B61572   8.642   8.553   4.569  1.3472 -0.5875  1.2025
  450CHL1   C2361573   8.655   8.526   4.344  0.1145 -0.3455 -1.1387
  450CHL1  H23A61574   8.655   8.416   4.355  0.3568 -0.1246  1.6878
  450CHL1  H23B61575   8.560   8.574   4.311  0.4210  0.7173 -0.5387
  450CHL1   C2461576   8.757   8.559   4.229 -0.5403 -0.2652 -0.5006
  450CHL1  H24A61577   8.746   8.669   4.221  3.7660  0.6065  2.2989
  450CHL1  H24B61578   8.859   8.528   4.261 -1.3269  0.0127  2.5429
  450CHL1   C2561579   8.729   8.491   4.097 -0.3284 -0.6551  0.8711
  450CHL1   H2561580   8.728   8.381   4.112  1.8023 -0.8980 -0.3898
  450CHL1   C2661581   8.597   8.536   4.041  0.8211  0.0871  0.0335
  450CHL1  H26A61582   8.565   8.471   3.956 -0.1761 -0.7697  1.0259
  450CHL1  H26B61583   8.511   8.520   4.110  0.9138  0.8098  0.3239
  450CHL1  H26C61584   8.599   8.643   4.012  3.0778 -0.1052 -0.6970
  450CHL1   C2761585   8.835   8.534   3.998  0.4536  0.4949  0.4822
  450CHL1  H27A61586   8.839   8.644   3.988 -0.8685  0.3936 -1.6834
  450CHL1  H27B61587   8.934   8.492   4.026  0.0169 -0.4475  0.6622
  450CHL1  H27C61588   8.813   8.495   3.897  1.1713  2.8773 -0.6503
  451CHL1    C361589   8.471   5.286   5.239  0.5492 -0.5625 -0.5213
  451CHL1    H361590   8.382   5.234   5.280  0.0081  0.3920 -0.4705
  451CHL1    O361591   8.469   5.421   5.295 -0.0202 -0.1692  0.5287
  451CHL1   H3'61592   8.391   5.454   5.249 -0.8468 -2.2920  0.3183
  451CHL1    C461593   8.600   5.211   5.269 -0.1294  0.1857 -0.1823
  451CHL1   H4A61594   8.685   5.264   5.222 -0.2863 -0.9059 -1.7999
  451CHL1   H4B61595   8.617   5.217   5.378 -1.0700  1.6565 -0.0913
  451CHL1    C561596   8.612   5.072   5.201  0.1435  0.9902 -0.0624
  451CHL1    C661597   8.627   4.960   5.280 -0.2725  0.1078 -0.0509
  451CHL1    H661598   8.624   4.966   5.390  1.6217 -1.0615  0.1039
  451CHL1    C761599   8.629   4.824   5.214 -0.1480  0.4338  0.8780
  451CHL1   H7A61600   8.691   4.747   5.265 -0.4657 -0.8797 -0.6425
  451CHL1   H7B61601   8.527   4.783   5.227 -1.1706  2.6685  0.3526
  451CHL1    C861602   8.651   4.827   5.064 -0.4918 -0.2380  0.3752
  451CHL1    H861603   8.753   4.865   5.044 -1.6165  3.3023  0.7105
  451CHL1   C1461604   8.634   4.688   5.004  1.0527  1.1521 -0.4976
  451CHL1   H1461605   8.534   4.667   5.048  1.1243  1.5596 -0.1241
  451CHL1   C1561606   8.725   4.571   5.050  0.5274 -0.6591 -0.9972
  451CHL1  H15A61607   8.829   4.606   5.031  0.3056 -1.1719 -3.5038
  451CHL1  H15B61608   8.711   4.549   5.159 -1.4958 -0.1723 -1.1276
  451CHL1   C1661609   8.686   4.452   4.955  0.5379 -0.0200 -0.2513
  451CHL1  H16A61610   8.771   4.395   4.912  1.0251  0.3490  0.2086
  451CHL1  H16B61611   8.619   4.393   5.021 -0.5578  2.7695  1.3033
  451CHL1   C1761612   8.599   4.515   4.842  0.2650  0.0552 -0.3789
  451CHL1   H1761613   8.495   4.506   4.880  0.6194  0.0940  0.6271
  451CHL1   C1361614   8.623   4.668   4.857  0.9880 -0.6306  0.3724
  451CHL1   C1861615   8.751   4.706   4.787  0.1800  0.3953 -0.3553
  451CHL1  H18A61616   8.741   4.687   4.678  0.6125 -0.6266 -0.2294
  451CHL1  H18B61617   8.779   4.813   4.791  1.3225  0.1133 -0.4521
  451CHL1  H18C61618   8.831   4.645   4.834 -0.5950 -0.7964 -0.5339
  451CHL1   C1261619   8.514   4.756   4.800 -0.1253 -0.0603  0.5160
  451CHL1  H12A61620   8.509   4.755   4.689 -2.8648 -1.1427  0.5802
  451CHL1  H12B61621   8.410   4.734   4.831 -0.2853 -0.4982 -0.3264
  451CHL1   C1161622   8.535   4.901   4.842  0.1896  0.5219  0.1805
  451CHL1  H11A61623   8.622   4.946   4.791  0.9229  1.1245  1.9032
  451CHL1  H11B61624   8.442   4.955   4.811 -0.9576 -0.8412  1.1007
  451CHL1    C961625   8.554   4.924   4.993 -0.1686 -0.4006  0.1175
  451CHL1    H961626   8.447   4.903   5.015 -0.2989 -0.2689 -0.3746
  451CHL1   C1061627   8.580   5.067   5.052 -0.0356  0.1848 -0.7046
  451CHL1   C1961628   8.700   5.135   4.975 -0.4941  0.2535 -1.0245
  451CHL1  H19A61629   8.794   5.082   4.999  0.3461  1.8980 -0.5616
  451CHL1  H19B61630   8.673   5.148   4.868 -0.3262 -0.3047 -1.1378
  451CHL1  H19C61631   8.723   5.232   5.025  1.0499 -0.0065 -1.1826
  451CHL1    C161632   8.451   5.150   5.020 -0.4862  0.3007  0.4618
  451CHL1   H1A61633   8.430   5.151   4.911  0.9324  0.0446  0.1737
  451CHL1   H1B61634   8.356   5.098   5.046 -0.7734  0.6836  0.1904
  451CHL1    C261635   8.445   5.293   5.083  0.1710  0.0886 -0.0197
  451CHL1   H2A61636   8.343   5.336   5.066 -0.0017 -1.0677 -2.3041
  451CHL1   H2B61637   8.524   5.360   5.042  0.0202 -0.1807 -0.7711
  451CHL1   C2061638   8.620   4.443   4.715  0.4574 -0.2138 -0.2771
  451CHL1   H2061639   8.728   4.452   4.692  1.1749 -0.4157  2.6914
  451CHL1   C2161640   8.534   4.504   4.600  0.0713  0.5502  0.1564
  451CHL1  H21A61641   8.571   4.605   4.573 -3.2419  1.8025 -0.2755
  451CHL1  H21B61642   8.431   4.525   4.638  0.7961  1.5525  1.6722
  451CHL1  H21C61643   8.537   4.443   4.508  1.8297  0.1092  0.4814
  451CHL1   C2261644   8.580   4.296   4.728  0.2209  0.1307 -0.0276
  451CHL1  H22A61645   8.612   4.233   4.814 -0.3243  0.8740  0.7392
  451CHL1  H22B61646   8.470   4.284   4.721  0.3830 -0.4572 -2.6404
  451CHL1   C2361647   8.625   4.203   4.614  0.2136 -0.8957 -0.1647
  451CHL1  H23A61648   8.578   4.103   4.621  2.2687 -1.9833 -0.9107
  451CHL1  H23B61649   8.601   4.245   4.515  2.4563  0.5356 -0.1822
  451CHL1   C2461650   8.773   4.179   4.619  0.2690 -1.2758  0.3465
  451CHL1  H24A61651   8.818   4.279   4.603 -2.0956 -0.1737  0.1957
  451CHL1  H24B61652   8.804   4.138   4.717 -1.2115 -0.3859  1.2328
  451CHL1   C2561653   8.816   4.077   4.505 -0.3752 -0.1459  0.6939
  451CHL1   H2561654   8.762   3.981   4.520  0.4021 -0.6332  0.4383
  451CHL1   C2661655   8.785   4.139   4.365 -0.0447 -0.7461  0.2999
  451CHL1  H26A61656   8.674   4.142   4.363 -0.1072  1.3057  2.5276
  451CHL1  H26B61657   8.818   4.244   4.359 -3.5605  0.4112 -1.6526
  451CHL1  H26C61658   8.824   4.086   4.275 -1.2959  0.2286 -0.8497
  451CHL1   C2761659   8.967   4.048   4.515 -0.4044 -1.0672 -0.4340
  451CHL1  H27A61660   8.970   3.946   4.470 -0.6867 -1.7432  1.0394
  451CHL1  H27B61661   9.029   4.131   4.475 -0.3108  0.8732  3.2889
  451CHL1  H27C61662   9.000   4.045   4.621 -0.2561  0.7274 -0.4015
  452CHL1    C361663  11.105  11.590   5.371 -0.2436 -0.1706  0.0592
  452CHL1    H361664  11.091  11.494   5.317  2.3517  0.0769 -1.1994
  452CHL1    O361665  11.098  11.548   5.506  0.0246  0.3222  0.6961
  452CHL1   H3'61666  11.053  11.621   5.548 -0.2037  2.1129 -2.3833
  452CHL1    C461667  11.233  11.670   5.335 -0.8649 -0.0351 -0.1732
  452CHL1   H4A61668  11.234  11.754   5.408  2.6778 -1.0080  1.1309
  452CHL1   H4B61669  11.309  11.594   5.361 -1.5366 -0.4701  0.5600
  452CHL1    C561670  11.227  11.711   5.186  0.1797  0.0135 -0.5898
  452CHL1    C661671  11.319  11.675   5.094 -0.3353 -0.3984 -1.0040
  452CHL1    H661672  11.402  11.614   5.131  1.6720  1.8822 -1.4492
  452CHL1    C761673  11.325  11.721   4.953 -0.0213 -0.3772 -0.0479
  452CHL1   H7A61674  11.432  11.750   4.938 -0.7069  2.6683  0.1810
  452CHL1   H7B61675  11.302  11.633   4.890 -1.1378 -0.6137  0.6765
  452CHL1    C861676  11.232  11.839   4.919  0.2225  0.1283  0.6077
  452CHL1    H861677  11.275  11.939   4.942 -3.1707  1.9115 -0.1223
  452CHL1   C1461678  11.209  11.850   4.766 -0.6989 -0.3772  0.3076
  452CHL1   H1461679  11.153  11.760   4.734 -1.2139  0.1114 -0.1900
  452CHL1   C1561680  11.342  11.866   4.691 -0.1299 -0.0144  0.5951
  452CHL1  H15A61681  11.409  11.936   4.745  0.4714 -0.8344  0.9332
  452CHL1  H15B61682  11.400  11.774   4.671 -0.2245  0.3481 -1.6374
  452CHL1   C1661683  11.293  11.922   4.556 -0.5902  0.6012  0.0433
  452CHL1  H16A61684  11.357  12.009   4.527  0.9226 -0.4015  0.2472
  452CHL1  H16B61685  11.296  11.846   4.475  2.2216  1.1865 -0.5275
  452CHL1   C1761686  11.141  11.961   4.574  0.7320 -0.6407  0.8437
  452CHL1   H1761687  11.082  11.872   4.543  0.3224  0.5395 -2.0413
  452CHL1   C1361688  11.131  11.974   4.724 -0.1020 -0.2345  0.1066
  452CHL1   C1861689  11.200  12.105   4.767 -0.8127 -0.1493 -0.1297
  452CHL1  H18A61690  11.216  12.110   4.877  0.9881  0.5241 -0.3846
  452CHL1  H18B61691  11.298  12.110   4.715 -0.0911 -3.2990  0.6991
  452CHL1  H18C61692  11.141  12.191   4.729  0.7958  0.6354 -0.9063
  452CHL1   C1261693  10.998  11.951   4.796  0.2574  0.1386 -1.2602
  452CHL1  H12A61694  10.921  12.030   4.785 -1.5062 -1.2717  0.3053
  452CHL1  H12B61695  10.944  11.862   4.760 -0.8453  0.5772 -0.7274
  452CHL1   C1161696  11.015  11.945   4.949 -0.6214 -0.0360  0.8297
  452CHL1  H11A61697  11.056  12.039   4.992 -1.8299  1.3182 -0.8236
  452CHL1  H11B61698  10.918  11.925   5.000 -0.1559 -2.0990  0.9970
  452CHL1    C961699  11.101  11.824   4.993  0.0908  0.6126 -0.1978
  452CHL1    H961700  11.061  11.732   4.944  0.6002  0.6724 -0.7333
  452CHL1   C1061701  11.106  11.800   5.146  0.7460 -0.3756 -0.2835
  452CHL1   C1961702  11.107  11.927   5.231 -0.0505  0.2513 -0.1031
  452CHL1  H19A61703  11.008  11.976   5.215 -0.2000  0.5303  1.4273
  452CHL1  H19B61704  11.103  11.915   5.342 -0.1913 -0.9973 -0.2361
  452CHL1  H19C61705  11.184  12.000   5.200 -0.6292  0.3387 -1.3841
  452CHL1    C161706  10.986  11.710   5.183  0.7149 -0.7414  0.0636
  452CHL1   H1A61707  10.890  11.763   5.167 -0.6829 -2.5625  1.8450
  452CHL1   H1B61708  10.987  11.613   5.128 -2.7769 -1.6793  1.3488
  452CHL1    C261709  10.984  11.670   5.333  0.5519 -0.5381  0.7452
  452CHL1   H2A61710  10.886  11.623   5.356  0.2716 -0.4692 -0.2446
  452CHL1   H2B61711  10.975  11.753   5.406  1.2668 -1.6951  2.1880
  452CHL1   C2061712  11.089  12.082   4.485  0.0712  0.6469  0.7815
  452CHL1   H2061713  11.163  12.165   4.494 -1.1825  1.9536 -0.3094
  452CHL1   C2161714  10.949  12.139   4.524  0.6560 -0.7500  0.7255
  452CHL1  H21A61715  10.965  12.174   4.629 -2.3614 -3.0853  2.1096
  452CHL1  H21B61716  10.863  12.068   4.530  0.2431 -0.2534  0.7238
  452CHL1  H21C61717  10.930  12.232   4.468  1.1804 -0.6022  0.7862
  452CHL1   C2261718  11.090  12.044   4.332  0.5191  0.1046  1.0711
  452CHL1  H22A61719  11.175  11.976   4.308  0.3826  0.9804 -2.3808
  452CHL1  H22B61720  10.993  11.991   4.316  0.4963  0.2084  0.8783
  452CHL1   C2361721  11.100  12.159   4.233 -0.0698 -0.4745  0.2125
  452CHL1  H23A61722  11.021  12.230   4.265  1.2866  0.4372  1.6556
  452CHL1  H23B61723  11.196  12.215   4.241 -0.5585  0.6352 -1.1319
  452CHL1   C2461724  11.073  12.115   4.086 -0.5603  0.2081  0.1193
  452CHL1  H24A61725  11.168  12.058   4.073 -0.9573 -0.5167  0.3040
  452CHL1  H24B61726  10.984  12.049   4.080 -0.2950 -0.0546 -1.0574
  452CHL1   C2561727  11.064  12.233   3.984  0.2764 -0.1860 -0.9563
  452CHL1   H2561728  10.977  12.296   4.011  0.7907  0.2680 -0.3439
  452CHL1   C2661729  11.189  12.326   3.985  0.1239  0.2602  0.1961
  452CHL1  H26A61730  11.270  12.281   3.925  0.9515  1.3928  0.4296
  452CHL1  H26B61731  11.173  12.426   3.939 -0.1473 -0.1949 -0.7283
  452CHL1  H26C61732  11.216  12.348   4.091  0.5639 -0.3622  0.2203
  452CHL1   C2761733  11.040  12.178   3.841  0.6083 -0.6538 -0.2900
  452CHL1  H27A61734  10.958  12.103   3.842  1.0234 -1.1085 -0.1826
  452CHL1  H27B61735  11.008  12.255   3.768  2.3027 -2.4621 -3.1635
  452CHL1  H27C61736  11.135  12.134   3.802  0.4992 -1.0923 -0.0743
  453CHL1    C361737   4.988   9.286   5.657  0.0518 -0.1535  1.3470
  453CHL1    H361738   4.886   9.329   5.662  0.0783 -0.1520  1.8757
  453CHL1    O361739   5.052   9.284   5.784  0.2548 -0.3016 -1.1482
  453CHL1   H3'61740   5.145   9.266   5.766  0.3163 -0.1300 -1.0034
  453CHL1    C461741   4.989   9.153   5.585  0.1754  0.4156  0.5541
  453CHL1   H4A61742   5.092   9.113   5.583 -0.1824 -0.7337  2.6539
  453CHL1   H4B61743   4.941   9.075   5.649  0.3830 -1.0524 -1.0123
  453CHL1    C561744   4.914   9.148   5.454 -0.1183 -0.3938  0.2218
  453CHL1    C661745   4.804   9.076   5.425 -0.0105  0.7587  0.1182
  453CHL1    H661746   4.776   9.011   5.509  0.5956 -1.8598 -1.5753
  453CHL1    C761747   4.719   9.067   5.300 -0.4085 -0.7036  0.3574
  453CHL1   H7A61748   4.687   8.965   5.273 -0.3554 -0.5721 -0.2016
  453CHL1   H7B61749   4.623   9.122   5.312 -0.5345 -0.6308 -0.8834
  453CHL1    C861750   4.808   9.127   5.188 -0.5436  0.0229 -0.3089
  453CHL1    H861751   4.891   9.056   5.165  0.4042  1.2427 -0.7394
  453CHL1   C1461752   4.716   9.153   5.071  0.0871 -1.0684  0.4113
  453CHL1   H1461753   4.641   9.233   5.092  0.8451  0.3322 -1.8543
  453CHL1   C1561754   4.628   9.032   5.024 -0.5562  0.0271  0.1805
  453CHL1  H15A61755   4.694   8.943   5.018  0.2949  0.4373  2.3823
  453CHL1  H15B61756   4.544   9.022   5.096  0.5245  2.4815  1.9140
  453CHL1   C1661757   4.588   9.065   4.882  0.0798 -0.2541  0.2424
  453CHL1  H16A61758   4.603   8.977   4.815  0.1827 -1.6236  1.9906
  453CHL1  H16B61759   4.479   9.087   4.884 -0.2483 -1.7336 -0.0895
  453CHL1   C1761760   4.673   9.197   4.847 -0.4593 -0.7890 -0.6929
  453CHL1   H1761761   4.609   9.283   4.877  0.9958  0.2138 -0.3154
  453CHL1   C1361762   4.790   9.206   4.952  0.5098 -0.1612 -0.8636
  453CHL1   C1861763   4.901   9.103   4.910 -0.2588 -0.5619  0.0787
  453CHL1  H18A61764   4.943   9.116   4.807 -0.5861 -3.2587 -0.4832
  453CHL1  H18B61765   4.981   9.112   4.986 -1.3250  1.2999  1.0406
  453CHL1  H18C61766   4.858   9.000   4.907 -1.3127 -0.3921  4.0266
  453CHL1   C1261767   4.850   9.347   4.981 -0.2396  0.3094  0.8234
  453CHL1  H12A61768   4.914   9.377   4.895 -0.5801  0.5685  0.6595
  453CHL1  H12B61769   4.769   9.421   4.999 -0.1036  1.3318 -2.0914
  453CHL1   C1161770   4.942   9.342   5.110  0.5381 -0.3742 -0.1481
  453CHL1  H11A61771   5.032   9.287   5.075  1.2289 -0.7431  2.0631
  453CHL1  H11B61772   4.966   9.442   5.151 -0.3713 -0.1082 -0.2485
  453CHL1    C961773   4.877   9.263   5.229 -0.7392  0.9567  0.0607
  453CHL1    H961774   4.793   9.329   5.259  0.7427  1.9733  2.2815
  453CHL1   C1061775   4.973   9.247   5.350 -0.0472 -0.6960 -0.8793
  453CHL1   C1961776   5.115   9.195   5.309  0.2381 -0.0154  0.3626
  453CHL1  H19A61777   5.098   9.110   5.241 -1.5214  0.1044  0.6091
  453CHL1  H19B61778   5.166   9.267   5.242  0.1241 -1.0597 -0.8785
  453CHL1  H19C61779   5.181   9.171   5.395 -0.6285 -0.4650  0.9077
  453CHL1    C161780   4.999   9.386   5.417 -0.2220 -0.3867 -0.4824
  453CHL1   H1A61781   5.067   9.457   5.366 -0.6809  0.2328 -0.2366
  453CHL1   H1B61782   4.901   9.435   5.432  0.5310  0.7797  0.8178
  453CHL1    C261783   5.061   9.377   5.562  0.2535  0.3286 -0.0903
  453CHL1   H2A61784   5.076   9.472   5.616 -3.5260  0.2757  1.3021
  453CHL1   H2B61785   5.166   9.340   5.551  0.9012  1.6102  1.3920
  453CHL1   C2061786   4.701   9.212   4.699  0.2420  0.5728  0.7093
  453CHL1   H2061787   4.755   9.119   4.669  1.4946  1.8545 -1.2118
  453CHL1   C2161788   4.788   9.325   4.664 -0.2947  0.2457  0.6656
  453CHL1  H21A61789   4.770   9.418   4.722  0.3378 -0.3662  1.8816
  453CHL1  H21B61790   4.790   9.341   4.554  0.8751  0.7663  0.7453
  453CHL1  H21C61791   4.894   9.302   4.687  0.1767  0.3797 -1.1562
  453CHL1   C2261792   4.567   9.234   4.618 -0.7311  0.1929 -0.7385
  453CHL1  H22A61793   4.597   9.245   4.511 -0.5270 -0.4064 -0.7465
  453CHL1  H22B61794   4.492   9.152   4.624 -3.6828  2.6072 -1.8771
  453CHL1   C2361795   4.495   9.366   4.648  0.2896 -0.1221 -0.5543
  453CHL1  H23A61796   4.482   9.379   4.757  0.8368  1.2628 -0.6336
  453CHL1  H23B61797   4.556   9.452   4.615 -1.3213  0.2263 -2.9394
  453CHL1   C2461798   4.353   9.375   4.578  0.1625  0.1545 -0.2196
  453CHL1  H24A61799   4.372   9.366   4.468 -0.6538 -0.3928 -0.3259
  453CHL1  H24B61800   4.304   9.282   4.614  0.1592  0.5226  0.7483
  453CHL1   C2561801   4.264   9.498   4.611  0.1093 -0.1971 -0.3319
  453CHL1   H2561802   4.321   9.588   4.579 -0.0517  1.7089  4.0639
  453CHL1   C2661803   4.124   9.494   4.541 -0.3295 -0.1947  0.1003
  453CHL1  H26A61804   4.064   9.581   4.575 -2.6330 -1.9135  0.6442
  453CHL1  H26B61805   4.134   9.510   4.432  0.1298 -0.0472  0.1599
  453CHL1  H26C61806   4.067   9.403   4.569  2.6325 -1.8714  1.1662
  453CHL1   C2761807   4.255   9.519   4.768  0.8814 -0.0311 -0.5144
  453CHL1  H27A61808   4.216   9.618   4.797  0.9082 -0.0749 -0.3273
  453CHL1  H27B61809   4.195   9.436   4.811 -0.4541 -0.2583 -2.6295
  453CHL1  H27C61810   4.354   9.522   4.818  1.0482  1.5393 -0.9057
  454CHL1    C361811   2.487  10.578   5.572  0.3196 -0.4322  0.8960
  454CHL1    H361812   2.442  10.512   5.495  0.0191 -0.9607  1.5105
  454CHL1    O361813   2.465  10.525   5.702  0.0626 -0.3389  0.0646
  454CHL1   H3'61814   2.516  10.445   5.715 -0.9172 -0.8089  1.2995
  454CHL1    C461815   2.637  10.577   5.560 -0.3674  0.3966  0.4678
  454CHL1   H4A61816   2.678  10.647   5.636  2.0844 -0.2301 -0.1765
  454CHL1   H4B61817   2.688  10.483   5.590 -0.5469  0.2736  0.3901
  454CHL1    C561818   2.675  10.610   5.412  0.1853  0.1284  0.2340
  454CHL1    C661819   2.719  10.511   5.323  0.1559  0.0063 -0.6059
  454CHL1    H661820   2.740  10.409   5.360  0.8914  0.6238  0.7391
  454CHL1    C761821   2.747  10.540   5.181 -0.0591 -0.0153 -0.1997
  454CHL1   H7A61822   2.852  10.512   5.155  0.5139  1.8711 -0.0717
  454CHL1   H7B61823   2.672  10.496   5.112  0.9254  0.1219 -1.3916
  454CHL1    C861824   2.743  10.693   5.147 -0.2873  0.5329 -0.3010
  454CHL1    H861825   2.836  10.740   5.186 -0.3985 -0.7295  1.6065
  454CHL1   C1461826   2.739  10.709   4.994  0.1289  0.2605  0.1609
  454CHL1   H1461827   2.644  10.664   4.958  0.6456 -0.3811 -0.4312
  454CHL1   C1561828   2.849  10.646   4.909  0.5893 -0.2484  0.2031
  454CHL1  H15A61829   2.942  10.671   4.965  0.7210 -1.5408  0.5805
  454CHL1  H15B61830   2.849  10.536   4.918  0.4873 -0.2675 -0.0289
  454CHL1   C1661831   2.835  10.707   4.775 -0.0517  1.0393 -0.0469
  454CHL1  H16A61832   2.936  10.744   4.746  0.3285 -1.4004 -2.1723
  454CHL1  H16B61833   2.816  10.634   4.694  2.7698  1.2808 -1.0533
  454CHL1   C1761834   2.729  10.819   4.786 -0.4134 -0.3560  0.2508
  454CHL1   H1761835   2.632  10.770   4.764  0.3430 -1.0450 -1.8262
  454CHL1   C1361836   2.729  10.853   4.940 -0.4687  0.2683 -0.3308
  454CHL1   C1861837   2.852  10.936   4.968  0.2545  0.2120  0.5330
  454CHL1  H18A61838   2.830  11.041   4.939  0.0695 -0.1557 -0.7069
  454CHL1  H18B61839   2.880  10.930   5.076 -0.9612  0.3352  0.8657
  454CHL1  H18C61840   2.939  10.905   4.906  1.5392 -0.8605  2.7347
  454CHL1   C1261841   2.612  10.919   5.005 -0.0494 -0.0384 -0.1808
  454CHL1  H12A61842   2.608  11.020   4.959  0.8415  0.1786  0.1996
  454CHL1  H12B61843   2.522  10.859   4.980  0.1211 -1.0719  1.5441
  454CHL1   C1161844   2.613  10.915   5.162 -0.5043  0.2635  0.5716
  454CHL1  H11A61845   2.702  10.975   5.190 -0.8528  1.8401 -1.4609
  454CHL1  H11B61846   2.522  10.966   5.199 -0.7575 -0.2802  0.7102
  454CHL1    C961847   2.624  10.766   5.215  0.3110  0.4956  0.1109
  454CHL1    H961848   2.530  10.718   5.180 -0.6375  0.2012  2.7656
  454CHL1   C1061849   2.625  10.750   5.368 -0.8342  0.4088  0.7057
  454CHL1   C1961850   2.720  10.848   5.428  0.7121 -0.0621  0.3081
  454CHL1  H19A61851   2.709  10.862   5.538  0.0794  0.0444  0.2327
  454CHL1  H19B61852   2.826  10.827   5.403  0.0989 -1.6293 -1.1389
  454CHL1  H19C61853   2.700  10.951   5.391 -2.1974 -0.3871  0.7387
  454CHL1    C161854   2.474  10.778   5.417 -1.0603  0.0803  0.3203
  454CHL1   H1A61855   2.458  10.888   5.415  0.4115  0.3065 -0.1890
  454CHL1   H1B61856   2.409  10.726   5.343 -2.0085  2.2423 -0.4383
  454CHL1    C261857   2.439  10.724   5.558 -0.5126 -0.0495 -0.6538
  454CHL1   H2A61858   2.328  10.717   5.565 -0.4709  0.3973  0.7338
  454CHL1   H2B61859   2.476  10.789   5.641  0.6727 -0.1797 -1.0697
  454CHL1   C2061860   2.743  10.931   4.677 -0.1813  0.0082  0.4304
  454CHL1   H2061861   2.847  10.971   4.687  0.0052 -0.4662  0.4256
  454CHL1   C2161862   2.661  11.060   4.708  0.1970  0.4329 -0.3454
  454CHL1  H21A61863   2.692  11.122   4.795 -0.5935  2.4789 -1.4455
  454CHL1  H21B61864   2.553  11.034   4.706  0.2844 -0.2472  1.2995
  454CHL1  H21C61865   2.686  11.123   4.620  0.7236 -0.5125 -0.8825
  454CHL1   C2261866   2.720  10.866   4.534  0.0735 -0.1132  0.2383
  454CHL1  H22A61867   2.763  10.764   4.522 -0.9062 -0.4456 -0.5254
  454CHL1  H22B61868   2.612  10.846   4.517  0.4312 -0.7824 -1.4691
  454CHL1   C2361869   2.786  10.947   4.416 -0.7031  0.3832  0.1067
  454CHL1  H23A61870   2.751  11.052   4.409  1.3642  1.1409  0.2336
  454CHL1  H23B61871   2.896  10.946   4.436 -0.7532 -0.8435  0.4371
  454CHL1   C2461872   2.744  10.886   4.281 -0.6026 -0.6842 -0.4264
  454CHL1  H24A61873   2.796  10.788   4.283  2.1778  0.6532  2.4622
  454CHL1  H24B61874   2.635  10.867   4.275 -0.5606 -1.4367  0.8756
  454CHL1   C2561875   2.792  10.961   4.153  0.3751  0.4656  0.1451
  454CHL1   H2561876   2.736  11.057   4.150  1.0121  0.8157 -0.8211
  454CHL1   C2661877   2.948  10.987   4.165  0.6169  0.4403 -0.2424
  454CHL1  H26A61878   3.008  10.902   4.204 -0.4858 -0.1923  0.1034
  454CHL1  H26B61879   2.978  11.020   4.063 -0.7266 -0.7157 -1.0415
  454CHL1  H26C61880   2.955  11.068   4.241  1.1341  1.6536 -1.5227
  454CHL1   C2761881   2.762  10.881   4.024  0.4837 -0.6305  0.1873
  454CHL1  H27A61882   2.821  10.786   4.018  0.2032 -0.8598  0.9674
  454CHL1  H27B61883   2.656  10.851   4.017  0.1664  0.3371  0.7517
  454CHL1  H27C61884   2.803  10.936   3.937 -2.1270  3.3533  1.2294
  455CHL1    C361885   8.283   5.701   5.121  0.3583  0.2673  0.3995
  455CHL1    H361886   8.393   5.693   5.128  0.3675  0.6849  0.8289
  455CHL1    O361887   8.225   5.629   5.230  0.5905 -0.3477  0.4653
  455CHL1   H3'61888   8.209   5.703   5.288 -0.6719  1.3637 -1.9164
  455CHL1    C461889   8.241   5.850   5.137  0.4667 -0.5588 -0.4833
  455CHL1   H4A61890   8.131   5.853   5.124  0.2624 -2.1475  0.5651
  455CHL1   H4B61891   8.279   5.888   5.235  1.4964 -0.3137 -0.9664
  455CHL1    C561892   8.297   5.934   5.020  0.1871  0.6233  0.0448
  455CHL1    C661893   8.360   6.048   5.049 -0.5318 -0.6029  0.2715
  455CHL1    H661894   8.376   6.077   5.154  2.0722  0.0203 -0.2281
  455CHL1    C761895   8.419   6.140   4.939  0.8151  0.4868 -0.6157
  455CHL1   H7A61896   8.396   6.248   4.949 -0.2510  0.4189 -2.0229
  455CHL1   H7B61897   8.528   6.131   4.958  0.2987 -2.4439  1.6056
  455CHL1    C861898   8.388   6.092   4.794 -0.2595 -0.4007  0.0888
  455CHL1    H861899   8.286   6.130   4.775  0.8226  3.6079  1.3993
  455CHL1   C1461900   8.495   6.149   4.703  0.9875  1.0834  0.0455
  455CHL1   H1461901   8.595   6.109   4.728  1.1805  0.2749 -1.8634
  455CHL1   C1561902   8.506   6.300   4.699 -0.4306  0.2023 -0.4798
  455CHL1  H15A61903   8.402   6.335   4.689 -0.9004 -0.6211  1.1051
  455CHL1  H15B61904   8.540   6.350   4.792 -0.8561 -0.9759  0.3373
  455CHL1   C1661905   8.601   6.324   4.583  0.2058  0.3474  0.6233
  455CHL1  H16A61906   8.576   6.419   4.531 -0.2824  0.6112  1.3230
  455CHL1  H16B61907   8.707   6.327   4.614  1.4959 -2.3268 -2.8158
  455CHL1   C1761908   8.584   6.196   4.492 -0.4171  0.1911  0.2246
  455CHL1   H1761909   8.678   6.139   4.513  0.7746  1.0067 -2.4315
  455CHL1   C1361910   8.465   6.114   4.551 -0.6651  0.6218  0.1764
  455CHL1   C1861911   8.326   6.156   4.495  0.2827 -0.2419 -0.3631
  455CHL1  H18A61912   8.242   6.098   4.540  0.9425  1.1903  3.0560
  455CHL1  H18B61913   8.311   6.265   4.514 -0.8382 -0.2677 -0.9869
  455CHL1  H18C61914   8.303   6.143   4.387  0.1947 -0.1187 -0.3601
  455CHL1   C1261915   8.482   5.965   4.541  0.6832 -0.0601  0.0284
  455CHL1  H12A61916   8.455   5.920   4.443 -0.9201  0.9933 -0.0522
  455CHL1  H12B61917   8.588   5.941   4.563  0.0889 -1.7711  1.2068
  455CHL1   C1161918   8.384   5.897   4.636  0.3032 -0.3541  0.4766
  455CHL1  H11A61919   8.282   5.907   4.593  0.8773 -0.3970 -0.9653
  455CHL1  H11B61920   8.402   5.787   4.640 -1.1720 -0.6490 -0.1113
  455CHL1    C961921   8.394   5.945   4.784 -0.3608 -0.3017  1.4285
  455CHL1    H961922   8.492   5.914   4.827  0.5045  0.4123  0.0107
  455CHL1   C1061923   8.295   5.869   4.871 -0.0584 -0.7029 -0.6580
  455CHL1   C1961924   8.149   5.882   4.815  0.6804 -0.1569 -0.1202
  455CHL1  H19A61925   8.116   5.988   4.824 -1.6770 -0.8088 -0.4091
  455CHL1  H19B61926   8.131   5.842   4.713 -2.3067  2.8818 -0.9752
  455CHL1  H19C61927   8.086   5.828   4.888  0.1862 -0.2069 -0.5690
  455CHL1    C161928   8.333   5.716   4.888  0.1925 -0.4147 -0.8077
  455CHL1   H1A61929   8.328   5.674   4.785 -0.1181  0.0565 -0.9886
  455CHL1   H1B61930   8.439   5.717   4.920 -0.5905  1.7646  2.1271
  455CHL1    C261931   8.253   5.644   4.985  0.4003 -0.0410  0.4561
  455CHL1   H2A61932   8.273   5.535   4.995 -1.2428 -0.3247  0.9198
  455CHL1   H2B61933   8.146   5.645   4.957  0.6481  2.1383 -0.5772
  455CHL1   C2061934   8.593   6.223   4.337 -0.5668  0.3093  0.6027
  455CHL1   H2061935   8.501   6.279   4.311  0.4073  1.0414 -1.5120
  455CHL1   C2161936   8.608   6.094   4.260 -0.3323  0.6675  0.0046
  455CHL1  H21A61937   8.654   6.116   4.162 -1.5820 -0.0227 -0.7627
  455CHL1  H21B61938   8.511   6.054   4.222  1.2990 -2.3096 -1.3898
  455CHL1  H21C61939   8.661   6.013   4.315  1.2219  0.8543 -1.1850
  455CHL1   C2261940   8.709   6.321   4.303 -0.4235  0.0550  0.2456
  455CHL1  H22A61941   8.686   6.347   4.197  0.4429  0.4738  0.1555
  455CHL1  H22B61942   8.700   6.410   4.369 -3.5454  0.5107 -0.6361
  455CHL1   C2361943   8.849   6.265   4.314  0.4889 -0.1870 -0.1222
  455CHL1  H23A61944   8.874   6.199   4.400 -0.4752 -0.2719  0.0995
  455CHL1  H23B61945   8.864   6.207   4.220 -0.1709  1.1456 -1.0781
  455CHL1   C2461946   8.962   6.371   4.320  0.9112 -0.6028 -0.6994
  455CHL1  H24A61947   8.954   6.452   4.245  1.5554  0.2480  0.1351
  455CHL1  H24B61948   8.942   6.422   4.416  0.6147 -2.0006  0.0136
  455CHL1   C2561949   9.105   6.319   4.320 -0.4687  0.1046 -0.3979
  455CHL1   H2561950   9.105   6.249   4.233  0.4300  2.2658 -2.2321
  455CHL1   C2661951   9.218   6.423   4.285  0.7883  0.0375 -0.1515
  455CHL1  H26A61952   9.319   6.388   4.316  0.4045  1.4048  2.9121
  455CHL1  H26B61953   9.219   6.433   4.174 -0.1696 -1.8863 -0.3923
  455CHL1  H26C61954   9.194   6.519   4.334 -0.9909  0.2572 -1.3764
  455CHL1   C2761955   9.142   6.239   4.449  0.0901  0.5690 -0.6078
  455CHL1  H27A61956   9.235   6.183   4.426  0.0754 -0.6407  1.9323
  455CHL1  H27B61957   9.158   6.297   4.542 -0.9184  0.8419 -0.5897
  455CHL1  H27C61958   9.064   6.166   4.478 -1.9381  2.4516 -1.0300
  456CHL1    C361959  11.109   5.741   4.963  0.3278 -0.3624  0.4416
  456CHL1    H361960  11.032   5.816   4.935 -1.8669 -1.7078  2.5454
  456CHL1    O361961  11.172   5.767   5.087  0.4193  0.8283  0.1044
  456CHL1   H3'61962  11.250   5.712   5.096  0.2685  0.1905 -1.8874
  456CHL1    C461963  11.022   5.624   4.989 -0.1976  0.0176 -0.3636
  456CHL1   H4A61964  11.086   5.541   5.027 -0.3239 -0.2827 -0.7974
  456CHL1   H4B61965  10.961   5.651   5.078  1.2791  4.1398 -0.3610
  456CHL1    C561966  10.944   5.583   4.872 -0.4486  1.2231  0.1763
  456CHL1    C661967  10.806   5.580   4.886 -0.3039  0.4697 -0.5431
  456CHL1    H661968  10.755   5.599   4.981 -0.0669  0.5495 -0.4312
  456CHL1    C761969  10.716   5.529   4.772  0.0757 -0.3830  0.2590
  456CHL1   H7A61970  10.647   5.444   4.793  2.4459 -3.1567 -2.1222
  456CHL1   H7B61971  10.655   5.616   4.739  3.3233  2.3166  0.8768
  456CHL1    C861972  10.797   5.492   4.640  0.3512 -0.4226 -0.2051
  456CHL1    H861973  10.828   5.387   4.658  1.8666 -0.0390 -0.4603
  456CHL1   C1461974  10.707   5.491   4.518 -0.3412  0.8662 -0.2420
  456CHL1   H1461975  10.679   5.593   4.487 -1.0384  0.1423 -2.1299
  456CHL1   C1561976  10.579   5.410   4.537 -0.0202  0.3284  0.0314
  456CHL1  H15A61977  10.604   5.324   4.602  2.5672  0.3255 -0.8738
  456CHL1  H15B61978  10.494   5.466   4.583 -0.7845  0.7511 -1.8031
  456CHL1   C1661979  10.532   5.370   4.398  0.0186 -0.4381 -0.4820
  456CHL1  H16A61980  10.509   5.262   4.386  0.4317 -0.9614  2.5053
  456CHL1  H16B61981  10.445   5.431   4.368  1.2682  2.2060  0.9464
  456CHL1   C1761982  10.649   5.423   4.305  0.2988  0.2572 -0.0194
  456CHL1   H1761983  10.641   5.530   4.278  1.6829  0.3647 -0.0973
  456CHL1   C1361984  10.776   5.435   4.393 -0.4152 -0.2615  0.2887
  456CHL1   C1861985  10.826   5.287   4.416  0.1815  0.0976 -0.0825
  456CHL1  H18A61986  10.743   5.218   4.441 -1.1908  0.9272 -2.0853
  456CHL1  H18B61987  10.874   5.251   4.322  0.3528 -1.6035  0.6169
  456CHL1  H18C61988  10.898   5.279   4.501 -0.1167 -0.9159  0.0912
  456CHL1   C1261989  10.888   5.535   4.361  0.0034  0.0974 -0.3028
  456CHL1  H12A61990  10.941   5.491   4.274 -2.1638  0.4905 -1.9079
  456CHL1  H12B61991  10.852   5.634   4.327 -0.8288 -0.5566 -1.4145
  456CHL1   C1161992  10.990   5.541   4.476  0.1715 -0.0920  0.2513
  456CHL1  H11A61993  11.035   5.444   4.505  1.4932  1.0204  2.1046
  456CHL1  H11B61994  11.073   5.607   4.445 -1.6585  1.6358 -1.2447
  456CHL1    C961995  10.924   5.573   4.618 -0.1087 -0.0270  0.1054
  456CHL1    H961996  10.890   5.678   4.611 -1.4189 -0.4383  0.0417
  456CHL1   C1061997  11.025   5.565   4.739  0.8238 -1.0013  0.4669
  456CHL1   C1961998  11.110   5.435   4.749 -0.3239  0.3728  0.1207
  456CHL1  H19A61999  11.170   5.444   4.843  0.9892  1.6585 -0.7983
  456CHL1  H19B62000  11.048   5.344   4.758 -1.3674  1.2514  3.2411
  456CHL1  H19C62001  11.176   5.432   4.660 -0.0521  0.4491  0.3146
  456CHL1    C162002  11.123   5.684   4.722  0.1387 -0.2955  0.0943
  456CHL1   H1A62003  11.195   5.659   4.641  1.0202  1.3311  0.3356
  456CHL1   H1B62004  11.063   5.771   4.688  1.2172 -0.6630 -3.1045
  456CHL1    C262005  11.205   5.716   4.848 -0.8452 -0.3458  0.2523
  456CHL1   H2A62006  11.274   5.801   4.830  0.0498 -1.2805 -0.8641
  456CHL1   H2B62007  11.269   5.629   4.875 -1.9931 -0.8474  1.4671
  456CHL1   C2062008  10.664   5.352   4.173 -1.3358 -0.1506  0.3043
  456CHL1   H2062009  10.764   5.356   4.125 -1.8013 -3.1239 -1.1248
  456CHL1   C2162010  10.560   5.429   4.080 -0.2096  0.3519 -0.0539
  456CHL1  H21A62011  10.569   5.387   3.977  0.4905 -0.4899  0.3296
  456CHL1  H21B62012  10.596   5.533   4.069  1.1631  0.0097  0.9158
  456CHL1  H21C62013  10.455   5.429   4.115  0.0721 -1.8067  0.9805
  456CHL1   C2262014  10.619   5.201   4.163 -0.1158  0.1286 -0.1519
  456CHL1  H22A62015  10.644   5.148   4.257  0.0594  1.2242  0.4443
  456CHL1  H22B62016  10.511   5.200   4.135 -0.3916  0.9880  0.8004
  456CHL1   C2362017  10.703   5.121   4.061 -0.3367 -0.3351 -0.3668
  456CHL1  H23A62018  10.724   5.189   3.976  1.6226  0.1844  0.4579
  456CHL1  H23B62019  10.801   5.089   4.104  0.0953  1.2334 -0.1000
  456CHL1   C2462020  10.625   5.004   4.002 -0.1727 -0.2996  0.3518
  456CHL1  H24A62021  10.606   4.934   4.087  1.5289 -0.5927  0.5117
  456CHL1  H24B62022  10.529   5.046   3.965 -0.9042 -2.4336 -0.3077
  456CHL1   C2562023  10.695   4.936   3.886 -0.4037  0.0891 -1.3794
  456CHL1   H2562024  10.734   5.021   3.826 -1.9720  1.5803 -0.3812
  456CHL1   C2662025  10.821   4.867   3.928 -0.8089  0.1132 -0.7203
  456CHL1  H26A62026  10.804   4.781   3.996 -0.1799 -0.0536 -0.7612
  456CHL1  H26B62027  10.872   4.811   3.846 -0.7349 -1.7041  0.4893
  456CHL1  H26C62028  10.894   4.937   3.974  0.9316 -1.3702 -1.0958
  456CHL1   C2762029  10.608   4.851   3.799  0.1128 -0.8594  0.2947
  456CHL1  H27A62030  10.526   4.917   3.765  1.1254 -0.0388 -0.6342
  456CHL1  H27B62031  10.663   4.808   3.712 -0.1047 -2.7849  1.0632
  456CHL1  H27C62032  10.563   4.771   3.861  2.6960 -1.6473  1.2717
  457CHL1    C362033   7.189   5.512   5.327  0.0192  0.0135 -0.6874
  457CHL1    H362034   7.093   5.458   5.337  0.4685 -0.9152 -1.2527
  457CHL1    O362035   7.213   5.592   5.447 -0.5036 -0.4705  0.0679
  457CHL1   H3'62036   7.288   5.649   5.431 -1.0940  0.3468  0.2006
  457CHL1    C462037   7.306   5.423   5.299  0.5763 -0.4094 -0.3239
  457CHL1   H4A62038   7.404   5.475   5.294  0.6234 -0.0414  2.6263
  457CHL1   H4B62039   7.323   5.358   5.388  1.0956 -0.2241 -0.2840
  457CHL1    C562040   7.294   5.348   5.172  0.1376  0.5656  0.4742
  457CHL1    C662041   7.303   5.213   5.162  0.2331  0.5746 -0.5910
  457CHL1    H662042   7.321   5.150   5.250 -3.8357 -1.3733 -0.9504
  457CHL1    C762043   7.288   5.132   5.038  0.2728  0.6476 -0.1677
  457CHL1   H7A62044   7.384   5.078   5.023 -0.3087  0.1241 -2.3860
  457CHL1   H7B62045   7.196   5.069   5.045  0.3804  0.6188  1.1974
  457CHL1    C862046   7.278   5.216   4.907 -0.2843 -0.6995 -0.1137
  457CHL1    H862047   7.379   5.252   4.878  0.4820 -2.4378  0.3079
  457CHL1   C1462048   7.208   5.140   4.801  0.7077  0.0439 -0.8369
  457CHL1   H1462049   7.109   5.117   4.847  0.9269 -1.2776 -0.9725
  457CHL1   C1562050   7.269   5.001   4.763  0.4323 -0.2275  0.2808
  457CHL1  H15A62051   7.379   5.002   4.752  0.2989  3.1445 -1.9028
  457CHL1  H15B62052   7.222   4.929   4.834 -1.4518  1.2454  0.6323
  457CHL1   C1662053   7.219   4.981   4.618  0.2077  0.6727 -0.2052
  457CHL1  H16A62054   7.307   4.981   4.550  0.0400 -1.2926 -0.4770
  457CHL1  H16B62055   7.163   4.888   4.596 -1.5773  2.0433 -1.8721
  457CHL1   C1762056   7.120   5.101   4.582 -0.8866  0.5547  0.4228
  457CHL1   H1762057   7.020   5.063   4.614 -1.5704 -1.1238 -3.2131
  457CHL1   C1362058   7.171   5.217   4.674 -0.2463 -0.8557 -0.2733
  457CHL1   C1862059   7.304   5.279   4.616 -0.2212 -0.3274 -0.3462
  457CHL1  H18A62060   7.282   5.332   4.521 -1.6751 -2.9360 -1.5845
  457CHL1  H18B62061   7.356   5.343   4.691  0.8411 -1.5908  0.0412
  457CHL1  H18C62062   7.379   5.199   4.595 -0.9516 -1.9223  2.6688
  457CHL1   C1262063   7.072   5.337   4.708  0.0101  0.3665  0.1485
  457CHL1  H12A62064   7.051   5.391   4.613 -1.2258 -0.7818 -0.2592
  457CHL1  H12B62065   6.982   5.289   4.752  1.0823 -0.8205  1.1036
  457CHL1   C1162066   7.132   5.418   4.812 -0.4693 -0.3683 -1.0378
  457CHL1  H11A62067   7.215   5.481   4.775 -0.7586  2.4905  2.5990
  457CHL1  H11B62068   7.053   5.489   4.846  0.2764 -0.1405  0.2753
  457CHL1    C962069   7.193   5.341   4.938 -0.6420  0.6447 -0.1570
  457CHL1    H962070   7.102   5.298   4.986  0.1607  0.0045  0.8242
  457CHL1   C1062071   7.255   5.435   5.049 -1.2045  0.0928 -0.6351
  457CHL1   C1962072   7.376   5.503   4.984  0.1202 -0.4620 -0.0604
  457CHL1  H19A62073   7.431   5.572   5.052 -0.1476 -1.0566  0.7844
  457CHL1  H19B62074   7.453   5.432   4.947  1.5163 -0.0257  1.8014
  457CHL1  H19C62075   7.342   5.575   4.907 -2.6240  1.0483  2.3903
  457CHL1    C162076   7.152   5.547   5.084  0.2933 -1.1634 -0.2654
  457CHL1   H1A62077   7.138   5.623   5.003 -0.0621  1.2513  1.9356
  457CHL1   H1B62078   7.053   5.497   5.094 -0.9277  0.3881 -3.1693
  457CHL1    C262079   7.173   5.615   5.213 -0.7184  0.3499 -0.8719
  457CHL1   H2A62080   7.101   5.697   5.234  0.6398  1.7224 -1.3474
  457CHL1   H2B62081   7.270   5.670   5.213 -0.4789 -0.0667 -0.5029
  457CHL1   C2062082   7.104   5.129   4.431  0.2392  0.0751 -0.2106
  457CHL1   H2062083   7.178   5.205   4.398  0.3403  0.1623  0.2113
  457CHL1   C2162084   6.966   5.197   4.413  0.2378  0.5480  0.2362
  457CHL1  H21A62085   6.954   5.235   4.310  0.2983  2.3655  0.8699
  457CHL1  H21B62086   6.962   5.289   4.475 -0.8673  0.8918 -0.3111
  457CHL1  H21C62087   6.883   5.128   4.440  0.2246  0.4230 -0.1186
  457CHL1   C2262088   7.120   5.003   4.341  0.0307  0.3916 -0.2642
  457CHL1  H22A62089   7.222   4.962   4.358 -0.1808  0.0968  0.3272
  457CHL1  H22B62090   7.049   4.927   4.381  0.1029  0.7699  0.6079
  457CHL1   C2362091   7.098   5.026   4.191 -0.3533  0.4429 -0.5764
  457CHL1  H23A62092   6.988   5.037   4.178 -0.7572 -1.3283  0.8748
  457CHL1  H23B62093   7.156   5.118   4.167  0.1275  1.0451  2.4757
  457CHL1   C2462094   7.136   4.897   4.110  0.2163 -0.7275  0.6924
  457CHL1  H24A62095   7.242   4.873   4.133  0.2606 -1.6025 -0.3337
  457CHL1  H24B62096   7.070   4.814   4.141  0.1752 -0.6283  0.8689
  457CHL1   C2562097   7.128   4.909   3.957 -0.1115 -0.8731 -0.7497
  457CHL1   H2562098   7.206   4.977   3.914 -0.9469  0.0491 -0.8415
  457CHL1   C2662099   7.153   4.770   3.896  0.1967 -0.1427 -0.0838
  457CHL1  H26A62100   7.248   4.728   3.935  0.8806  0.3968 -1.1240
  457CHL1  H26B62101   7.083   4.691   3.932 -0.0561 -1.3967 -3.0829
  457CHL1  H26C62102   7.163   4.754   3.787  1.0590  0.5051 -0.1058
  457CHL1   C2762103   7.007   4.983   3.906 -0.0200 -0.2980 -0.2838
  457CHL1  H27A62104   6.984   5.086   3.943  0.7370  0.3741 -1.5937
  457CHL1  H27B62105   7.030   4.994   3.798 -0.4587  2.0644 -0.2054
  457CHL1  H27C62106   6.908   4.933   3.915 -0.1897 -0.4167 -2.2300
  458CHL1    C362107   0.352   7.063   4.949 -0.6090  0.1150 -0.2844
  458CHL1    H362108   0.352   7.173   4.939  0.0860  0.4727  2.7362
  458CHL1    O362109   0.351   7.039   5.086 -0.2925 -0.2811  0.0631
  458CHL1   H3'62110   0.269   7.077   5.120 -0.7970 -2.3208  1.2512
  458CHL1    C462111   0.233   6.996   4.884 -0.2146 -1.1789 -0.3958
  458CHL1   H4A62112   0.227   6.889   4.914 -2.2319 -0.8340  0.5730
  458CHL1   H4B62113   0.143   7.034   4.937 -0.8248 -1.1809 -1.3934
  458CHL1    C562114   0.228   7.013   4.729 -0.7160 -0.2032 -0.1857
  458CHL1    C662115   0.122   7.069   4.668 -0.4209  0.1518  0.0983
  458CHL1    H662116   0.038   7.117   4.721  0.0797  1.3687 -0.1697
  458CHL1    C762117   0.116   7.080   4.522  0.0283 -0.4017  0.0591
  458CHL1   H7A62118   0.024   7.029   4.487  0.7226 -1.8358  0.2486
  458CHL1   H7B62119   0.102   7.189   4.511  1.4683 -0.1420  0.5847
  458CHL1    C862120   0.233   7.023   4.432  0.1563  0.0770  0.1356
  458CHL1    H862121   0.210   6.915   4.428 -1.5123  0.3503  1.1930
  458CHL1   C1462122   0.240   7.089   4.295 -0.0298 -0.0118 -0.0187
  458CHL1   H1462123   0.270   7.194   4.316  1.7052 -0.3709 -0.4735
  458CHL1   C1562124   0.115   7.098   4.204  0.5454  0.4373  0.3826
  458CHL1  H15A62125   0.049   7.010   4.216 -0.0486  0.9105  0.6495
  458CHL1  H15B62126   0.057   7.187   4.238 -2.7462 -1.4667  0.2214
  458CHL1   C1662127   0.174   7.128   4.064 -1.2525  0.8402  0.6345
  458CHL1  H16A62128   0.134   7.053   3.992 -1.2686 -1.1168  2.5836
  458CHL1  H16B62129   0.153   7.229   4.024  0.1939  1.5581  1.5979
  458CHL1   C1762130   0.327   7.128   4.087  0.2981  0.2801 -0.2545
  458CHL1   H1762131   0.349   7.231   4.123 -1.3258 -0.3487  2.8955
  458CHL1   C1362132   0.355   7.039   4.209 -0.6565  0.2941  0.1597
  458CHL1   C1862133   0.336   6.886   4.179 -0.3665 -0.4397 -0.3052
  458CHL1  H18A62134   0.430   6.843   4.137  0.4490 -0.0712  1.0670
  458CHL1  H18B62135   0.321   6.832   4.275 -0.3391  1.2824  0.7029
  458CHL1  H18C62136   0.255   6.857   4.109  0.2307  1.4436 -1.8626
  458CHL1   C1262137   0.487   7.072   4.277  0.8265 -0.5827  0.2038
  458CHL1  H12A62138   0.571   7.045   4.210  1.4972 -0.7048  1.0724
  458CHL1  H12B62139   0.492   7.181   4.297 -0.1213 -0.7716  1.5905
  458CHL1   C1162140   0.492   7.004   4.415 -0.0553  0.2467 -0.2564
  458CHL1  H11A62141   0.501   6.894   4.407  0.0848  0.1842  0.6874
  458CHL1  H11B62142   0.589   7.033   4.460 -0.2717  0.4625  0.0759
  458CHL1    C962143   0.368   7.042   4.505  0.2221 -0.5822 -0.6421
  458CHL1    H962144   0.366   7.153   4.505  0.2959 -0.5745 -1.4453
  458CHL1   C1062145   0.357   6.974   4.649 -0.2629 -0.3082 -0.2030
  458CHL1   C1962146   0.347   6.824   4.639  0.3588  0.0620 -0.2216
  458CHL1  H19A62147   0.423   6.780   4.571 -1.1197 -0.8432 -1.3593
  458CHL1  H19B62148   0.359   6.772   4.736 -1.7649 -0.4607 -0.1973
  458CHL1  H19C62149   0.245   6.790   4.609 -0.4202  0.6795  1.5729
  458CHL1    C162150   0.475   7.022   4.728 -0.1483  0.4726  0.6728
  458CHL1   H1A62151   0.551   6.951   4.689 -3.8701 -1.8156 -3.3652
  458CHL1   H1B62152   0.494   7.128   4.703  1.9850 -0.5028 -2.6138
  458CHL1    C262153   0.477   7.002   4.882 -0.2622 -0.3077 -0.6889
  458CHL1   H2A62154   0.571   7.044   4.925 -0.2655 -0.4072 -0.5820
  458CHL1   H2B62155   0.483   6.894   4.908  0.8829  0.4459  2.6793
  458CHL1   C2062156   0.428   7.110   3.964  0.3588  0.2052  0.0306
  458CHL1   H2062157   0.533   7.116   4.000 -0.2251 -0.0245  1.8819
  458CHL1   C2162158   0.401   7.236   3.883  0.6966  1.2647  0.4142
  458CHL1  H21A62159   0.474   7.245   3.800  0.0375 -1.6298 -0.5966
  458CHL1  H21B62160   0.425   7.331   3.936  1.6158  1.3870 -0.1995
  458CHL1  H21C62161   0.299   7.236   3.840  1.3991  1.8298 -1.3290
  458CHL1   C2262162   0.415   6.980   3.876 -0.2851 -0.0628 -0.0820
  458CHL1  H22A62163   0.458   6.899   3.939 -3.4121 -1.1059  0.8542
  458CHL1  H22B62164   0.311   6.952   3.852 -0.9704  1.0132  1.4565
  458CHL1   C2362165   0.508   6.991   3.749  0.4534  0.2119 -0.3771
  458CHL1  H23A62166   0.466   7.056   3.670  0.8924 -0.9499 -1.5919
  458CHL1  H23B62167   0.603   7.038   3.783  0.3550  0.6867 -0.7422
  458CHL1   C2462168   0.528   6.854   3.695  0.5854  0.2986  0.4799
  458CHL1  H24A62169   0.578   6.792   3.772  0.8866  0.0341  0.0714
  458CHL1  H24B62170   0.430   6.804   3.676  0.9685 -0.3296  0.1321
  458CHL1   C2562171   0.575   6.841   3.551  0.2128  0.5564  0.1721
  458CHL1   H2562172   0.504   6.893   3.482  1.7913  0.3238 -1.7202
  458CHL1   C2662173   0.707   6.910   3.526 -0.2025 -0.2188  0.0011
  458CHL1  H26A62174   0.782   6.883   3.603 -0.8348  0.4139  0.8633
  458CHL1  H26B62175   0.750   6.906   3.424 -0.4000 -1.0744 -0.0558
  458CHL1  H26C62176   0.686   7.019   3.529 -2.4102 -0.5629 -0.8078
  458CHL1   C2762177   0.599   6.693   3.499 -0.5399 -0.0158 -0.5973
  458CHL1  H27A62178   0.681   6.644   3.557 -1.9500 -0.9557  0.6525
  458CHL1  H27B62179   0.504   6.636   3.495 -0.3065 -0.7012  1.9269
  458CHL1  H27C62180   0.636   6.710   3.395 -0.8849 -0.1446 -0.7431
  459CHL1    C362181   3.788  10.425   5.541  0.5923  0.2853  0.4015
  459CHL1    H362182   3.748  10.321   5.535  0.8901  0.1115  1.2352
  459CHL1    O362183   3.814  10.451   5.674  0.1943 -0.2712 -0.1575
  459CHL1   H3'62184   3.827  10.365   5.715  2.9489  0.6425  1.1138
  459CHL1    C462185   3.908  10.450   5.446 -0.4024 -0.0332 -0.2705
  459CHL1   H4A62186   3.932  10.558   5.456 -0.0390 -0.1243 -0.1744
  459CHL1   H4B62187   3.990  10.390   5.491 -0.6894  0.0898  0.4393
  459CHL1    C562188   3.875  10.430   5.299  0.3033 -0.8379 -0.1377
  459CHL1    C662189   3.946  10.338   5.227  0.1724 -1.0992 -1.0681
  459CHL1    H662190   4.038  10.297   5.271 -0.7552 -1.3292  0.7621
  459CHL1    C762191   3.917  10.318   5.085  0.2935 -0.7579 -0.0642
  459CHL1   H7A62192   4.006  10.306   5.019 -0.6511 -2.5223 -1.1073
  459CHL1   H7B62193   3.863  10.221   5.078 -0.1408 -0.4584 -1.0791
  459CHL1    C862194   3.824  10.420   5.011  0.2110  0.2854  0.1966
  459CHL1    H862195   3.885  10.509   4.988 -0.3836  0.3214 -1.3221
  459CHL1   C1462196   3.758  10.353   4.885  0.0137 -0.3200 -0.5233
  459CHL1   H1462197   3.698  10.273   4.933  2.1562 -0.3867  2.3065
  459CHL1   C1562198   3.849  10.297   4.780  0.6616 -0.7967  0.1508
  459CHL1  H15A62199   3.941  10.359   4.771 -1.0631  1.6211 -2.0660
  459CHL1  H15B62200   3.862  10.191   4.810 -0.9247 -0.4491  2.3416
  459CHL1   C1662201   3.770  10.294   4.650 -0.0335 -0.6755  0.0234
  459CHL1  H16A62202   3.827  10.353   4.574 -1.0622  1.2429  0.6685
  459CHL1  H16B62203   3.755  10.189   4.619  2.2748 -0.3681 -2.5426
  459CHL1   C1762204   3.642  10.372   4.672  0.1420  0.3824 -1.2751
  459CHL1   H1762205   3.567  10.296   4.704  0.6017  0.0259 -1.0346
  459CHL1   C1362206   3.669  10.451   4.805 -0.3957  0.2597  0.8135
  459CHL1   C1862207   3.748  10.579   4.766 -0.2428 -0.0790  0.0865
  459CHL1  H18A62208   3.680  10.652   4.715  0.2359 -0.0889 -0.5895
  459CHL1  H18B62209   3.807  10.630   4.845  1.0481 -1.3649  0.0107
  459CHL1  H18C62210   3.820  10.554   4.684  0.0737 -0.4637  0.4805
  459CHL1   C1262211   3.548  10.488   4.902 -0.3803  0.6620  0.3337
  459CHL1  H12A62212   3.484  10.562   4.850 -0.9102 -1.3534 -2.1059
  459CHL1  H12B62213   3.487  10.399   4.929  0.6009  0.1128  0.8069
  459CHL1   C1162214   3.595  10.550   5.039 -0.6220  0.1995  0.7962
  459CHL1  H11A62215   3.651  10.643   5.016 -0.1565  0.6259  3.3229
  459CHL1  H11B62216   3.510  10.556   5.110 -0.6305 -0.0664  0.8098
  459CHL1    C962217   3.704  10.460   5.102  0.6233 -0.2388  0.0663
  459CHL1    H962218   3.641  10.370   5.120 -0.2595  0.3011 -0.2505
  459CHL1   C1062219   3.749  10.506   5.245 -0.3073 -0.2772  0.6000
  459CHL1   C1962220   3.795  10.654   5.229 -0.3831  0.1197  0.4746
  459CHL1  H19A62221   3.698  10.708   5.218 -1.4497 -1.8915 -0.6916
  459CHL1  H19B62222   3.843  10.704   5.315 -1.4424  0.9831  0.5950
  459CHL1  H19C62223   3.868  10.665   5.147  1.1604  0.7337  1.8862
  459CHL1    C162224   3.635  10.496   5.349  0.0586 -0.3448  0.6627
  459CHL1   H1A62225   3.558  10.572   5.326 -0.1748 -0.2806  1.6326
  459CHL1   H1B62226   3.587  10.397   5.333  1.9446 -1.6536  2.5704
  459CHL1    C262227   3.672  10.518   5.497  0.0111 -0.8734  0.3981
  459CHL1   H2A62228   3.582  10.494   5.557  0.8391 -1.3108  1.5036
  459CHL1   H2B62229   3.697  10.625   5.516  3.2446 -1.4480  0.0854
  459CHL1   C2062230   3.575  10.445   4.552 -0.6216  0.2672 -0.4089
  459CHL1   H2062231   3.657  10.515   4.524  1.0623 -1.0221  1.0322
  459CHL1   C2162232   3.440  10.517   4.578  0.1010 -0.3125 -0.5618
  459CHL1  H21A62233   3.465  10.602   4.645 -1.0269  2.2538 -3.1735
  459CHL1  H21B62234   3.357  10.461   4.626  0.2558  1.4893  1.9860
  459CHL1  H21C62235   3.394  10.557   4.485  2.6852  1.9298 -1.0229
  459CHL1   C2262236   3.551  10.354   4.436  0.3296  0.6265  0.2919
  459CHL1  H22A62237   3.488  10.410   4.365  3.9635  1.3178 -2.7359
  459CHL1  H22B62238   3.650  10.341   4.386 -0.7202  0.2003 -1.7685
  459CHL1   C2362239   3.479  10.218   4.466  0.0964  0.2939 -0.2432
  459CHL1  H23A62240   3.542  10.162   4.539  0.0884  2.7107  1.7539
  459CHL1  H23B62241   3.377  10.235   4.506  0.3688  0.3060  0.4475
  459CHL1   C2462242   3.452  10.150   4.330  0.5409  0.8044  0.0135
  459CHL1  H24A62243   3.381  10.219   4.279  1.4302  0.8772 -1.1574
  459CHL1  H24B62244   3.547  10.147   4.273  1.7372 -2.6964  1.8783
  459CHL1   C2562245   3.403  10.008   4.331 -0.6932  0.0306 -0.5155
  459CHL1   H2562246   3.482   9.956   4.391 -1.2830  1.4638  1.6493
  459CHL1   C2662247   3.275   9.984   4.405  0.3199  0.3095 -0.8524
  459CHL1  H26A62248   3.190  10.045   4.367 -2.9188 -2.5544  1.2093
  459CHL1  H26B62249   3.241   9.879   4.398 -0.3046  0.5969 -3.2285
  459CHL1  H26C62250   3.282   9.994   4.515 -2.1181  1.4416 -0.7399
  459CHL1   C2762251   3.400   9.939   4.192  0.4677 -0.1238  0.5539
  459CHL1  H27A62252   3.360  10.010   4.116  0.4670 -1.1202 -0.4044
  459CHL1  H27B62253   3.507   9.926   4.161  0.2381  0.1911 -0.4111
  459CHL1  H27C62254   3.341   9.845   4.198 -0.6172  0.3325 -1.8734
  460CHL1    C362255   2.747   3.944   5.295  0.0236  0.4284  0.7064
  460CHL1    H362256   2.639   3.950   5.268  0.5894  4.0893 -1.3348
  460CHL1    O362257   2.757   3.941   5.434  0.3036  0.4438 -0.6215
  460CHL1   H3'62258   2.844   3.920   5.467  0.4143  1.8639  0.1009
  460CHL1    C462259   2.798   3.809   5.244  0.1071 -0.1666 -0.1164
  460CHL1   H4A62260   2.904   3.796   5.273  0.1908 -1.3728 -0.8905
  460CHL1   H4B62261   2.727   3.738   5.292 -0.2767  0.2318 -0.0807
  460CHL1    C562262   2.795   3.817   5.093 -0.9025 -0.9162  0.5935
  460CHL1    C662263   2.724   3.729   5.019 -0.5366  0.0622 -0.3518
  460CHL1    H662264   2.683   3.642   5.071 -0.2984  1.4497  2.3159
  460CHL1    C762265   2.721   3.722   4.871 -0.0783 -0.6099  0.1652
  460CHL1   H7A62266   2.747   3.623   4.828  1.4207 -0.0405 -0.3072
  460CHL1   H7B62267   2.616   3.742   4.841  0.1158  0.6800  0.2974
  460CHL1    C862268   2.810   3.822   4.796 -0.9390  0.2409 -0.6808
  460CHL1    H862269   2.913   3.779   4.798 -0.4115  1.3262 -2.5735
  460CHL1   C1462270   2.770   3.844   4.648 -0.2743  0.9168 -0.5019
  460CHL1   H1462271   2.678   3.903   4.666 -0.5703  0.0839  0.8610
  460CHL1   C1562272   2.728   3.722   4.564 -0.2838 -0.1797  0.0984
  460CHL1  H15A62273   2.798   3.637   4.576  0.6218  0.6702  1.0101
  460CHL1  H15B62274   2.626   3.691   4.596 -0.0649 -1.3637 -0.2807
  460CHL1   C1662275   2.737   3.781   4.423  0.1065 -0.3236  1.1269
  460CHL1  H16A62276   2.829   3.736   4.379 -0.5886  1.5496 -2.6566
  460CHL1  H16B62277   2.664   3.763   4.341  1.2527  0.5098 -0.1333
  460CHL1   C1762278   2.777   3.933   4.435  0.6921  0.7883  0.0369
  460CHL1   H1762279   2.685   3.992   4.453  0.9493  1.5048 -0.9409
  460CHL1   C1362280   2.849   3.946   4.573  0.5246  0.1390  0.5155
  460CHL1   C1862281   2.995   3.888   4.571  0.3969  0.0288 -0.4540
  460CHL1  H18A62282   3.046   3.904   4.669 -0.4964  2.0712 -0.2765
  460CHL1  H18B62283   2.992   3.778   4.555  1.7330  0.0441 -0.9425
  460CHL1  H18C62284   3.060   3.941   4.499 -0.5946  0.3482 -1.1156
  460CHL1   C1262285   2.844   4.076   4.642 -0.0252  0.4364 -0.4364
  460CHL1  H12A62286   2.901   4.153   4.586 -1.1955  0.3138 -1.8417
  460CHL1  H12B62287   2.736   4.099   4.659  0.2833  1.5147  0.1442
  460CHL1   C1162288   2.896   4.076   4.793  0.1289  0.2420  0.6598
  460CHL1  H11A62289   3.001   4.054   4.819 -0.3791  0.7030  3.3766
  460CHL1  H11B62290   2.871   4.174   4.840 -2.6447  0.8298 -1.7217
  460CHL1    C962291   2.816   3.959   4.869  0.7521  0.4605 -0.5171
  460CHL1    H962292   2.710   3.991   4.868  0.7770  0.8395  2.1055
  460CHL1   C1062293   2.854   3.946   5.026  0.2578 -0.1425  0.6920
  460CHL1   C1962294   3.011   3.932   5.040 -0.4488  0.1608  0.2917
  460CHL1  H19A62295   3.053   3.864   4.963 -0.2916  1.3765 -0.7205
  460CHL1  H19B62296   3.057   4.033   5.039 -0.6084  0.2314 -0.3717
  460CHL1  H19C62297   3.037   3.885   5.138  0.6678 -1.7892 -0.8882
  460CHL1    C162298   2.814   4.070   5.097  0.3183 -0.4732  1.2905
  460CHL1   H1A62299   2.866   4.158   5.053  0.6922 -0.4549  1.7571
  460CHL1   H1B62300   2.708   4.095   5.077  0.7093 -0.1194 -0.5356
  460CHL1    C262301   2.826   4.062   5.243 -0.1386 -0.2506  0.6808
  460CHL1   H2A62302   2.793   4.157   5.291 -0.8521 -0.3869  0.4704
  460CHL1   H2B62303   2.933   4.050   5.270  0.6731  1.0170 -1.6626
  460CHL1   C2062304   2.849   4.001   4.316  0.7508  0.2374  0.1918
  460CHL1   H2062305   2.912   4.087   4.347  0.9031 -0.5195  2.1113
  460CHL1   C2162306   2.743   4.069   4.225 -0.7314 -0.0631 -0.4120
  460CHL1  H21A62307   2.672   3.992   4.190  1.0820 -1.2894 -1.5180
  460CHL1  H21B62308   2.797   4.111   4.137  0.4874  0.6166  0.6177
  460CHL1  H21C62309   2.697   4.147   4.290  2.8815 -0.3727  2.9200
  460CHL1   C2262310   2.949   3.912   4.236  0.5082 -0.6373 -0.6674
  460CHL1  H22A62311   3.014   3.853   4.304  0.8774  0.3676 -0.1301
  460CHL1  H22B62312   2.880   3.839   4.187 -0.3906 -0.3252  0.1097
  460CHL1   C2362313   3.045   3.989   4.142  0.0422  0.1632 -0.7335
  460CHL1  H23A62314   2.983   4.029   4.059  1.5455  3.1301 -0.5631
  460CHL1  H23B62315   3.084   4.076   4.198  0.9624 -0.8588  0.2576
  460CHL1   C2462316   3.168   3.916   4.094  0.0232 -0.0033  0.1883
  460CHL1  H24A62317   3.233   3.901   4.182  1.6033 -1.0231 -1.0963
  460CHL1  H24B62318   3.141   3.812   4.067  2.4031 -0.1850 -1.8313
  460CHL1   C2562319   3.244   3.977   3.983 -0.2783  0.5237  0.3273
  460CHL1   H2562320   3.333   3.914   3.958 -0.1972  1.0775 -0.8699
  460CHL1   C2662321   3.161   3.983   3.853 -0.3759  0.3322  0.4519
  460CHL1  H26A62322   3.068   4.044   3.856 -1.5211 -1.2664 -0.5733
  460CHL1  H26B62323   3.229   4.019   3.773  0.6969 -1.2302  0.6062
  460CHL1  H26C62324   3.126   3.879   3.834  0.5871  0.0495  0.1977
  460CHL1   C2762325   3.296   4.112   4.029  0.3691 -0.2422  1.1520
  460CHL1  H27A62326   3.360   4.107   4.119 -0.4852 -3.0952  1.7028
  460CHL1  H27B62327   3.346   4.165   3.944 -0.0323 -0.3129  0.8658
  460CHL1  H27C62328   3.211   4.176   4.059  0.6628  0.0450  1.3766
  461CHL1    C362329  11.519   5.282   4.921  0.5886  0.1592 -0.7839
  461CHL1    H362330  11.501   5.324   4.820  1.4432  1.5365 -0.3924
  461CHL1    O362331  11.483   5.380   5.013  0.2251  0.6037  0.7059
  461CHL1   H3'62332  11.564   5.395   5.063 -0.5139  2.0879  1.5426
  461CHL1    C462333  11.442   5.149   4.931  0.0925 -0.2926 -0.0350
  461CHL1   H4A62334  11.447   5.101   5.032 -0.8062  1.5377  0.9172
  461CHL1   H4B62335  11.339   5.185   4.913 -0.1968 -0.8268  0.4922
  461CHL1    C562336  11.496   5.059   4.823 -0.0805 -0.2800 -0.4570
  461CHL1    C662337  11.411   5.002   4.736  0.8652 -0.3887 -0.5730
  461CHL1    H662338  11.302   5.018   4.745  1.1065  0.9620  0.2699
  461CHL1    C762339  11.442   4.900   4.628 -0.4734 -0.0672 -0.6617
  461CHL1   H7A62340  11.373   4.815   4.644  1.9947 -2.0570  0.1221
  461CHL1   H7B62341  11.426   4.931   4.522 -0.6382 -0.9066 -0.8908
  461CHL1    C862342  11.588   4.854   4.638 -0.8808 -0.0030 -0.2249
  461CHL1    H862343  11.603   4.781   4.720  3.7986 -0.0225 -0.8114
  461CHL1   C1462344  11.632   4.791   4.505 -0.3187  0.3495  0.0149
  461CHL1   H1462345  11.602   4.865   4.428  1.6657 -0.3041 -1.4948
  461CHL1   C1562346  11.553   4.666   4.462 -0.1399  0.1129  0.1774
  461CHL1  H15A62347  11.550   4.592   4.545 -0.5449 -0.5893 -0.4469
  461CHL1  H15B62348  11.445   4.684   4.443  0.0500  2.3434  0.9841
  461CHL1   C1662349  11.642   4.620   4.345  0.3472 -0.2290 -0.0437
  461CHL1  H16A62350  11.655   4.511   4.361 -0.6680 -0.2119  0.9792
  461CHL1  H16B62351  11.597   4.642   4.245  2.1629 -0.4040 -0.9458
  461CHL1   C1762352  11.781   4.689   4.356  0.1711  0.2264  0.0515
  461CHL1   H1762353  11.789   4.780   4.292 -2.4071 -0.9824 -2.1353
  461CHL1   C1362354  11.783   4.743   4.501  1.3319 -0.0848 -0.5236
  461CHL1   C1862355  11.816   4.632   4.612  0.6093  0.7873  0.6582
  461CHL1  H18A62356  11.790   4.659   4.717  1.7581  1.0109  0.8932
  461CHL1  H18B62357  11.770   4.535   4.582 -0.0628  0.9830  1.0211
  461CHL1  H18C62358  11.925   4.622   4.594  0.4694  0.0199  0.1737
  461CHL1   C1262359  11.857   4.877   4.513 -0.2474  0.1681 -0.0213
  461CHL1  H12A62360  11.955   4.828   4.499 -0.9793 -0.8894 -1.8343
  461CHL1  H12B62361  11.840   4.948   4.429  1.1310  1.8935  1.0826
  461CHL1   C1162362  11.825   4.932   4.654  0.4518  0.3901  0.3602
  461CHL1  H11A62363  11.850   4.859   4.733 -0.4997 -0.5818 -0.2017
  461CHL1  H11B62364  11.896   5.015   4.673  0.4562  0.6085 -0.5736
  461CHL1    C962365  11.678   4.981   4.665 -0.2514  0.3321 -0.0334
  461CHL1    H962366  11.653   5.052   4.583 -2.2178 -0.6526 -0.3502
  461CHL1   C1062367  11.648   5.044   4.803 -0.8857  0.6842 -0.1660
  461CHL1   C1962368  11.693   4.956   4.925  0.9391 -0.2826 -0.1916
  461CHL1  H19A62369  11.646   4.856   4.919  0.6583 -0.1709  0.1003
  461CHL1  H19B62370  11.804   4.962   4.924  0.8826  2.7709 -1.4977
  461CHL1  H19C62371  11.656   4.998   5.021  1.9785  1.2053 -0.4112
  461CHL1    C162372  11.712   5.181   4.814 -0.2647 -0.5522  0.5458
  461CHL1   H1A62373  11.822   5.170   4.815 -0.2369 -0.7259 -0.9837
  461CHL1   H1B62374  11.688   5.238   4.722  0.2782 -2.1055 -0.6188
  461CHL1    C262375  11.668   5.264   4.929  0.0354  0.0780 -0.2794
  461CHL1   H2A62376  11.716   5.364   4.920  0.1613  0.0033 -0.4229
  461CHL1   H2B62377  11.710   5.239   5.029 -0.8691 -0.7941 -0.0979
  461CHL1   C2062378  11.895   4.595   4.327  0.3196 -0.1824  0.0963
  461CHL1   H2062379  11.895   4.516   4.405  0.0607 -1.1056 -0.8150
  461CHL1   C2162380  12.023   4.671   4.320 -0.2170  0.0289  0.2797
  461CHL1  H21A62381  12.013   4.769   4.267 -2.9522 -0.1963  0.2321
  461CHL1  H21B62382  12.097   4.614   4.260 -2.3085 -1.0317 -1.4208
  461CHL1  H21C62383  12.071   4.676   4.420 -1.0805 -1.9800  0.8308
  461CHL1   C2262384  11.874   4.518   4.197  0.2156 -0.5128  0.0068
  461CHL1  H22A62385  11.970   4.466   4.179 -1.2585 -3.6424  0.4732
  461CHL1  H22B62386  11.792   4.443   4.204 -0.3546  0.1530  0.7107
  461CHL1   C2362387  11.855   4.598   4.068 -0.4394 -0.5330  0.7632
  461CHL1  H23A62388  11.749   4.632   4.068 -0.4260 -0.4990  0.3097
  461CHL1  H23B62389  11.919   4.689   4.065 -2.4013  0.8810 -0.1979
  461CHL1   C2462390  11.896   4.518   3.940 -0.1937  0.1109 -0.3760
  461CHL1  H24A62391  11.999   4.485   3.966  0.2864  0.9397 -1.1170
  461CHL1  H24B62392  11.836   4.428   3.913 -1.0789 -0.0037  1.8136
  461CHL1   C2562393  11.907   4.608   3.813  0.1066 -0.4261  0.6784
  461CHL1   H2562394  11.996   4.673   3.828  0.7834 -0.8278 -1.2900
  461CHL1   C2662395  11.937   4.519   3.695 -0.1667  0.5342  0.4166
  461CHL1  H26A62396  12.021   4.453   3.725 -1.7285 -1.4011  0.6938
  461CHL1  H26B62397  11.847   4.471   3.652 -0.7511  0.8379  1.2670
  461CHL1  H26C62398  11.977   4.588   3.618 -1.2144  1.2881  0.5255
  461CHL1   C2762399  11.778   4.684   3.782  0.7780 -0.1971  0.1317
  461CHL1  H27A62400  11.698   4.607   3.770 -1.0381  1.8002 -1.4327
  461CHL1  H27B62401  11.757   4.750   3.869  1.9031  2.5556 -1.5746
  461CHL1  H27C62402  11.792   4.746   3.691  0.6338  0.4729  0.5600
  462CHL1    C362403   0.176   2.464   5.598 -0.5489  0.3003  0.1961
  462CHL1    H362404   0.193   2.573   5.584 -0.8840  0.6428  2.1324
  462CHL1    O362405   0.196   2.460   5.736  0.5826 -0.0460 -1.0117
  462CHL1   H3'62406   0.174   2.371   5.763  1.3128  0.5411  1.8762
  462CHL1    C462407   0.027   2.426   5.561  0.0281 -0.1567  0.2680
  462CHL1   H4A62408   0.006   2.327   5.608  1.3685  0.5493  2.5309
  462CHL1   H4B62409  -0.031   2.507   5.611  1.6306  0.5751  1.0280
  462CHL1    C562410   0.002   2.415   5.408  0.5901  1.0673 -0.6679
  462CHL1    C662411  -0.095   2.487   5.344 -0.1622  0.7597 -0.0551
  462CHL1    H662412  -0.158   2.557   5.401  0.2913  3.0957 -2.2915
  462CHL1    C762413  -0.131   2.472   5.198  0.5289 -0.5999 -0.6468
  462CHL1   H7A62414  -0.240   2.451   5.192  0.6072 -0.9039 -1.1196
  462CHL1   H7B62415  -0.110   2.571   5.153  0.3873 -0.0924  0.3907
  462CHL1    C862416  -0.054   2.358   5.129 -0.4331 -0.0049 -0.4645
  462CHL1    H862417  -0.095   2.257   5.152  0.1155  0.3047  2.1728
  462CHL1   C1462418  -0.043   2.380   4.977  0.8123 -0.7410  0.2181
  462CHL1   H1462419   0.008   2.478   4.971 -0.6718  0.1598  1.6567
  462CHL1   C1562420  -0.183   2.399   4.906  0.5527  0.4880 -0.1472
  462CHL1  H15A62421  -0.255   2.327   4.950 -0.8716  0.3001 -2.5931
  462CHL1  H15B62422  -0.229   2.499   4.925 -0.0312 -0.1375  2.0267
  462CHL1   C1662423  -0.156   2.363   4.757 -0.0954 -0.0755 -0.4113
  462CHL1  H16A62424  -0.230   2.283   4.734 -1.5229  1.4262 -1.1967
  462CHL1  H16B62425  -0.179   2.438   4.679 -1.5820 -0.9625 -0.8655
  462CHL1   C1762426  -0.002   2.329   4.747 -0.4807  0.2060  0.2944
  462CHL1   H1762427   0.039   2.432   4.742 -1.0373  0.3859 -1.7450
  462CHL1   C1362428   0.033   2.280   4.890 -0.7174 -0.4182 -0.5082
  462CHL1   C1862429  -0.026   2.133   4.909 -0.1553  0.0016 -0.3782
  462CHL1  H18A62430  -0.019   2.108   5.017 -0.7612 -0.1808 -0.3770
  462CHL1  H18B62431  -0.135   2.133   4.887 -0.5975 -2.9874  1.2966
  462CHL1  H18C62432   0.043   2.059   4.864  0.0319  0.2666 -0.5275
  462CHL1   C1262433   0.178   2.286   4.949  0.4642  0.4233 -0.1342
  462CHL1  H12A62434   0.246   2.216   4.897 -0.2895  0.1545 -0.7794
  462CHL1  H12B62435   0.221   2.386   4.925  1.8973 -0.4439 -1.3299
  462CHL1   C1162436   0.184   2.262   5.101 -0.0175 -0.6516 -0.3153
  462CHL1  H11A62437   0.153   2.157   5.119 -3.0875  0.1264 -0.5715
  462CHL1  H11B62438   0.287   2.283   5.138 -0.5972 -1.0621  1.6567
  462CHL1    C962439   0.095   2.364   5.181  0.4497  0.2224 -0.2513
  462CHL1    H962440   0.135   2.465   5.156 -0.2403 -0.1833 -3.4823
  462CHL1   C1062441   0.104   2.334   5.330 -0.6972 -0.4069 -0.1885
  462CHL1   C1962442   0.090   2.183   5.363 -0.5900  0.0964 -0.4952
  462CHL1  H19A62443   0.010   2.144   5.296 -0.9301  1.3275 -0.8440
  462CHL1  H19B62444   0.183   2.125   5.343  1.0125  2.1607  0.5255
  462CHL1  H19C62445   0.069   2.161   5.470 -0.9135 -3.0744 -1.1316
  462CHL1    C162446   0.247   2.382   5.371 -0.8441  0.3823 -0.3281
  462CHL1   H1A62447   0.330   2.318   5.335 -0.3900  1.2842 -0.8999
  462CHL1   H1B62448   0.259   2.481   5.323 -1.1815  0.1142 -0.9800
  462CHL1    C262449   0.276   2.381   5.518 -0.5705  0.7941 -0.5515
  462CHL1   H2A62450   0.371   2.435   5.539 -1.8710  2.4190  1.5131
  462CHL1   H2B62451   0.284   2.277   5.556 -1.0111  0.9081 -0.1422
  462CHL1   C2062452   0.043   2.251   4.626 -0.3557  0.4319 -0.4198
  462CHL1   H2062453   0.001   2.148   4.626 -0.0449  0.2448  1.8204
  462CHL1   C2162454   0.197   2.242   4.621 -0.1093  0.2346  0.1068
  462CHL1  H21A62455   0.228   2.165   4.695  1.2782  0.4936 -0.1704
  462CHL1  H21B62456   0.242   2.335   4.662  1.4730 -0.2219 -0.5078
  462CHL1  H21C62457   0.248   2.233   4.523  2.7440  1.1948  1.3840
  462CHL1   C2262458  -0.004   2.312   4.488  0.0316  0.2036 -0.6049
  462CHL1  H22A62459   0.051   2.254   4.411  1.6472 -2.1129  2.0853
  462CHL1  H22B62460  -0.106   2.278   4.460 -0.4888  0.1251  1.2355
  462CHL1   C2362461   0.025   2.464   4.463  0.5741 -0.1782 -0.0500
  462CHL1  H23A62462  -0.027   2.516   4.546  0.8691 -1.3501  0.8967
  462CHL1  H23B62463   0.135   2.482   4.473  0.3205  2.3359 -1.0025
  462CHL1   C2462464  -0.021   2.506   4.329  0.1451 -0.4536  0.8486
  462CHL1  H24A62465   0.033   2.450   4.249 -0.8210  0.1236 -0.2339
  462CHL1  H24B62466  -0.128   2.478   4.319  0.3068 -0.7332 -0.3287
  462CHL1   C2562467  -0.000   2.660   4.308 -0.0017  0.8317  0.1432
  462CHL1   H2562468  -0.067   2.714   4.380 -0.2013  0.7921 -0.0129
  462CHL1   C2662469   0.146   2.711   4.321 -0.4537 -0.5987 -1.0121
  462CHL1  H26A62470   0.180   2.704   4.427  0.9358 -0.6353 -1.4433
  462CHL1  H26B62471   0.210   2.642   4.261  0.4221 -2.7415  2.1145
  462CHL1  H26C62472   0.158   2.817   4.292  3.3139 -0.7762 -0.5966
  462CHL1   C2762473  -0.055   2.704   4.175  0.1788 -0.1226  0.1342
  462CHL1  H27A62474  -0.009   2.637   4.099 -0.2662 -0.1312 -0.1277
  462CHL1  H27B62475  -0.165   2.691   4.169  0.2116 -0.5835  0.5162
  462CHL1  H27C62476  -0.041   2.813   4.159  0.0442  0.2008  2.0633
  463CHL1    C362477   1.681  10.481   5.492 -0.5375  0.7992  1.1522
  463CHL1    H362478   1.776  10.533   5.515  1.0268 -0.1134 -2.5976
  463CHL1    O362479   1.614  10.422   5.602  0.3051 -0.3298  0.0465
  463CHL1   H3'62480   1.535  10.385   5.561 -0.6067  2.3038 -0.8562
  463CHL1    C462481   1.594  10.569   5.403 -0.2512 -0.4227 -0.2708
  463CHL1   H4A62482   1.500  10.512   5.386 -1.1149  1.5850 -2.8381
  463CHL1   H4B62483   1.572  10.663   5.457  0.7621  0.1745 -0.8593
  463CHL1    C562484   1.650  10.614   5.265  0.9581  0.0706 -0.6827
  463CHL1    C662485   1.664  10.742   5.222 -0.8849  0.2401 -0.8319
  463CHL1    H662486   1.627  10.824   5.285  0.0156 -1.3665  1.9801
  463CHL1    C762487   1.702  10.777   5.083 -0.6628 -0.0745 -0.0291
  463CHL1   H7A62488   1.623  10.844   5.044  0.5836  1.6538  0.2856
  463CHL1   H7B62489   1.798  10.833   5.073 -0.0934 -0.7919  1.1140
  463CHL1    C862490   1.697  10.663   4.985 -0.2866 -0.2634  0.0771
  463CHL1    H862491   1.594  10.634   4.957  0.2665  0.2999 -2.8363
  463CHL1   C1462492   1.782  10.699   4.861  0.7297 -0.8019  0.4164
  463CHL1   H1462493   1.889  10.707   4.892  1.0690 -0.8290 -0.7009
  463CHL1   C1562494   1.759  10.834   4.793 -0.1952  0.6315 -0.4426
  463CHL1  H15A62495   1.650  10.852   4.792 -0.3770 -0.2996  0.8870
  463CHL1  H15B62496   1.813  10.913   4.850  0.6305  0.9014 -1.5514
  463CHL1   C1662497   1.820  10.821   4.647  0.2097 -0.1438  1.1150
  463CHL1  H16A62498   1.738  10.809   4.574  1.1884 -1.6288  0.1998
  463CHL1  H16B62499   1.887  10.907   4.625  1.1429 -0.9072  0.9079
  463CHL1   C1762500   1.888  10.672   4.647  0.2957 -0.0024 -0.3525
  463CHL1   H1762501   1.985  10.701   4.692 -0.0383  1.4865 -0.5526
  463CHL1   C1362502   1.797  10.595   4.751 -0.8494  0.5714  0.4523
  463CHL1   C1862503   1.662  10.564   4.685 -0.0161 -0.0760 -0.1268
  463CHL1  H18A62504   1.673  10.473   4.622  1.1806 -1.5672  2.0981
  463CHL1  H18B62505   1.587  10.536   4.763 -1.8997  1.7699 -1.1598
  463CHL1  H18C62506   1.621  10.648   4.624 -0.4765  0.4481  0.8778
  463CHL1   C1262507   1.862  10.465   4.810  0.3921  0.5142  0.9235
  463CHL1  H12A62508   1.850  10.387   4.732  1.0236  1.0982  0.2294
  463CHL1  H12B62509   1.969  10.461   4.841  1.0046  0.7615 -0.9870
  463CHL1   C1162510   1.777  10.431   4.940 -0.4302  0.1138 -0.4745
  463CHL1  H11A62511   1.679  10.394   4.903 -0.3977  0.8666 -1.3507
  463CHL1  H11B62512   1.837  10.353   4.991  0.2845  0.6058 -0.5457
  463CHL1    C962513   1.760  10.539   5.051 -0.3209 -0.1128 -0.8609
  463CHL1    H962514   1.864  10.569   5.079 -0.9830  2.8210 -1.1880
  463CHL1   C1062515   1.689  10.491   5.186  0.6440 -0.3640 -0.0719
  463CHL1   C1962516   1.568  10.406   5.150 -0.3599 -0.6434  0.6183
  463CHL1  H19A62517   1.596  10.320   5.085  2.5434  2.0068 -1.9324
  463CHL1  H19B62518   1.508  10.369   5.236 -1.4032 -0.2813  0.0606
  463CHL1  H19C62519   1.497  10.469   5.092  0.5802  1.0770  1.2776
  463CHL1    C162520   1.792  10.409   5.274  0.0575 -0.2992 -0.4885
  463CHL1   H1A62521   1.825  10.315   5.226 -0.5410  0.1060 -1.7435
  463CHL1   H1B62522   1.876  10.481   5.282 -0.5346  0.5145 -1.2582
  463CHL1    C262523   1.729  10.359   5.406 -0.5872 -0.1880  0.2491
  463CHL1   H2A62524   1.814  10.318   5.464  0.8368  2.0229 -0.1630
  463CHL1   H2B62525   1.645  10.290   5.385 -1.0596  0.7684 -1.2112
  463CHL1   C2062526   1.916  10.607   4.506 -0.1631 -0.7566 -0.1838
  463CHL1   H2062527   1.822  10.565   4.465 -0.4940 -1.9185  1.6104
  463CHL1   C2162528   2.019  10.497   4.524 -0.3264 -0.4744 -0.4031
  463CHL1  H21A62529   2.057  10.468   4.424  1.3331 -0.5346  0.2109
  463CHL1  H21B62530   1.983  10.404   4.572 -0.8248 -0.2411 -0.3146
  463CHL1  H21C62531   2.100  10.533   4.592 -0.8953  0.5754 -0.2594
  463CHL1   C2262532   1.974  10.707   4.400  0.3058 -0.7228 -0.1809
  463CHL1  H22A62533   1.991  10.649   4.306 -0.5891 -1.3913  0.0608
  463CHL1  H22B62534   1.891  10.780   4.395  1.3575  0.5185  0.0172
  463CHL1   C2362535   2.109  10.780   4.445 -0.2525 -0.2308  0.2595
  463CHL1  H23A62536   2.078  10.822   4.543 -0.9285 -0.9784  0.3740
  463CHL1  H23B62537   2.184  10.702   4.472  0.3352 -0.2479 -1.3613
  463CHL1   C2462538   2.150  10.892   4.350 -0.8927 -0.4657 -0.0546
  463CHL1  H24A62539   2.062  10.948   4.312  1.7904  3.1145 -1.5567
  463CHL1  H24B62540   2.217  10.970   4.393  1.0590 -1.7308 -0.7034
  463CHL1   C2562541   2.195  10.840   4.217  0.1417 -0.7293  0.0051
  463CHL1   H2562542   2.112  10.796   4.158  1.0359 -1.2003 -0.9292
  463CHL1   C2662543   2.230  10.953   4.118  0.1860  0.2439  0.0157
  463CHL1  H26A62544   2.301  10.919   4.040 -1.3216 -1.0645 -0.8401
  463CHL1  H26B62545   2.143  10.976   4.053  0.2004  1.0822  0.2884
  463CHL1  H26C62546   2.278  11.036   4.175 -0.4460  1.5324 -1.2695
  463CHL1   C2762547   2.307  10.748   4.227 -0.1293 -0.3246  0.2533
  463CHL1  H27A62548   2.357  10.728   4.130  0.1415 -0.7298  0.4756
  463CHL1  H27B62549   2.369  10.777   4.315 -1.9501  0.4047  1.3535
  463CHL1  H27C62550   2.265  10.652   4.263 -2.0329 -0.2013 -1.4622
  464CHL1    C362551   7.860  10.578   5.651  0.0033 -0.4748 -0.2923
  464CHL1    H362552   7.897  10.682   5.633 -1.2600  0.1960  0.7695
  464CHL1    O362553   7.937  10.523   5.758 -0.2149  0.2079 -0.2610
  464CHL1   H3'62554   7.943  10.588   5.828  1.1063 -0.1974  0.0236
  464CHL1    C462555   7.717  10.581   5.679  0.1195  0.4096 -0.7414
  464CHL1   H4A62556   7.672  10.483   5.705  0.2482  0.3131 -0.8799
  464CHL1   H4B62557   7.710  10.638   5.774  0.4319 -0.1877 -0.3567
  464CHL1    C562558   7.633  10.629   5.570 -0.2670  0.1843 -0.4412
  464CHL1    C662559   7.555  10.735   5.585 -0.0888 -0.2218 -0.6745
  464CHL1    H662560   7.569  10.785   5.682 -0.6349 -1.3047 -0.0235
  464CHL1    C762561   7.466  10.794   5.478  0.8383  0.2001  0.2796
  464CHL1   H7A62562   7.364  10.817   5.514  0.6113 -2.0665  1.2549
  464CHL1   H7B62563   7.519  10.889   5.453 -0.5114  0.5564 -1.3860
  464CHL1    C862564   7.437  10.698   5.357 -0.3839 -0.5587 -0.0411
  464CHL1    H862565   7.354  10.631   5.388 -0.3269 -1.1659 -1.1669
  464CHL1   C1462566   7.397  10.777   5.231  0.6556  0.0644  0.0825
  464CHL1   H1462567   7.489  10.833   5.201  0.1635  0.2260 -1.1997
  464CHL1   C1562568   7.295  10.893   5.240 -0.7496 -0.3087 -0.2020
  464CHL1  H15A62569   7.200  10.859   5.288 -1.5933  1.7689 -0.3258
  464CHL1  H15B62570   7.323  10.980   5.302 -1.9381 -1.6314  2.4000
  464CHL1   C1662571   7.275  10.917   5.093 -0.3952  0.5361  0.1578
  464CHL1  H16A62572   7.170  10.937   5.063  0.2548  2.2225 -1.1379
  464CHL1  H16B62573   7.323  11.006   5.048  1.0507  0.6623  1.8191
  464CHL1   C1762574   7.322  10.798   5.005 -0.3164 -0.2835 -0.1215
  464CHL1   H1762575   7.423  10.830   4.972 -0.7656  1.9397  0.5304
  464CHL1   C1362576   7.357  10.691   5.108  0.0539  0.4329 -0.4998
  464CHL1   C1862577   7.216  10.617   5.140  0.4604 -0.4072 -0.6760
  464CHL1  H18A62578   7.174  10.559   5.055  2.2796 -1.9998 -0.5569
  464CHL1  H18B62579   7.212  10.543   5.224  1.7567 -2.0879 -2.0328
  464CHL1  H18C62580   7.139  10.695   5.158 -1.7717 -2.7109  0.5416
  464CHL1   C1262581   7.479  10.594   5.079 -0.4103 -0.7393 -0.0965
  464CHL1  H12A62582   7.450  10.521   5.000  0.2461  2.6248 -3.7748
  464CHL1  H12B62583   7.555  10.663   5.037  0.1304 -0.6495  1.0216
  464CHL1   C1162584   7.544  10.527   5.199  1.3299  0.5785  0.0709
  464CHL1  H11A62585   7.472  10.444   5.211 -0.1476  1.6083 -1.3177
  464CHL1  H11B62586   7.631  10.475   5.154 -0.7659 -0.0197 -3.6944
  464CHL1    C962587   7.566  10.622   5.314  0.1859  0.5027 -0.3096
  464CHL1    H962588   7.639  10.700   5.283  0.8961 -0.4674 -1.1492
  464CHL1   C1062589   7.638  10.553   5.434 -0.0805  0.3502 -0.3128
  464CHL1   C1962590   7.576  10.413   5.460 -0.0174  0.9411 -0.6396
  464CHL1  H19A62591   7.580  10.350   5.368  0.6348  0.0057  0.0207
  464CHL1  H19B62592   7.636  10.359   5.536  0.0690  0.0358 -1.3388
  464CHL1  H19C62593   7.469  10.424   5.488  0.2274 -1.3654  1.5630
  464CHL1    C162594   7.788  10.542   5.407  0.7422 -0.6828  0.6439
  464CHL1   H1A62595   7.796  10.476   5.318 -3.0653 -0.0569 -0.3338
  464CHL1   H1B62596   7.822  10.641   5.370  2.7859 -2.6938 -3.5061
  464CHL1    C262597   7.877  10.500   5.524 -0.0196  0.1098  0.0193
  464CHL1   H2A62598   7.981  10.517   5.491 -0.2580  3.2196  0.5589
  464CHL1   H2B62599   7.850  10.396   5.552 -1.9059  0.8571  1.1833
  464CHL1   C2062600   7.238  10.766   4.876 -0.0574  0.5909 -0.3867
  464CHL1   H2062601   7.136  10.737   4.908 -0.0271  0.3454 -0.5128
  464CHL1   C2162602   7.295  10.640   4.806 -0.3644  0.1935 -0.5370
  464CHL1  H21A62603   7.249  10.632   4.705  1.2951  0.0030 -1.3137
  464CHL1  H21B62604   7.269  10.545   4.857 -0.0210  0.5571  0.3340
  464CHL1  H21C62605   7.405  10.647   4.796 -0.2795 -0.4542 -0.0990
  464CHL1   C2262606   7.248  10.879   4.782 -0.2089 -0.3018  0.6308
  464CHL1  H22A62607   7.235  10.974   4.838  1.4547 -0.2423  0.9650
  464CHL1  H22B62608   7.349  10.896   4.740 -0.8489  0.3954 -0.7059
  464CHL1   C2362609   7.144  10.877   4.661 -0.0846  0.6349 -0.0496
  464CHL1  H23A62610   7.179  10.797   4.592  0.8800 -0.9104  2.1112
  464CHL1  H23B62611   7.043  10.861   4.705 -0.5370  1.1944 -0.8725
  464CHL1   C2462612   7.156  11.009   4.589 -0.2329 -0.3824 -0.0742
  464CHL1  H24A62613   7.109  11.092   4.646 -0.4702 -1.1848  0.9067
  464CHL1  H24B62614   7.264  11.033   4.575 -0.8163  2.0026 -1.1183
  464CHL1   C2562615   7.098  11.003   4.446 -0.3143 -0.9837 -0.1657
  464CHL1   H2562616   6.993  10.966   4.457 -0.2529 -1.0702  0.1511
  464CHL1   C2662617   7.098  11.141   4.378  0.7510 -0.2539  0.3757
  464CHL1  H26A62618   7.043  11.151   4.282  0.8850  2.1738  0.4944
  464CHL1  H26B62619   7.055  11.215   4.449  1.4596  1.0004 -0.4557
  464CHL1  H26C62620   7.203  11.169   4.352  0.1798 -1.3729 -3.8628
  464CHL1   C2762621   7.171  10.908   4.350  0.2685  0.1815 -0.6437
  464CHL1  H27A62622   7.161  10.802   4.381 -0.2157 -0.1194 -1.7775
  464CHL1  H27B62623   7.124  10.914   4.249  0.7227 -1.1585 -0.9452
  464CHL1  H27C62624   7.279  10.929   4.338  0.3789  0.6256  0.8992
  465CHL1    C362625   1.633   9.311   5.758  0.1181 -0.0281  0.3374
  465CHL1    H362626   1.538   9.266   5.723 -0.5986  0.1600  1.9593
  465CHL1    O362627   1.645   9.296   5.897 -0.4322  0.2294  0.0687
  465CHL1   H3'62628   1.684   9.209   5.896  0.4612  0.5320  2.2371
  465CHL1    C462629   1.760   9.244   5.685  0.5618 -0.3992 -0.4001
  465CHL1   H4A62630   1.853   9.289   5.726 -0.0599  3.1189 -2.4796
  465CHL1   H4B62631   1.756   9.137   5.717  1.3920 -0.3042  0.0444
  465CHL1    C562632   1.754   9.268   5.532  0.3009 -0.3135  0.1042
  465CHL1    C662633   1.754   9.164   5.448 -0.9253 -0.4135  0.2818
  465CHL1    H662634   1.761   9.063   5.490 -2.9549 -1.1589 -1.0377
  465CHL1    C762635   1.760   9.179   5.297  0.4356  0.9218 -0.0866
  465CHL1   H7A62636   1.832   9.108   5.251  0.5069  0.2618  1.0020
  465CHL1   H7B62637   1.662   9.149   5.255  0.6884  0.5273 -0.3971
  465CHL1    C862638   1.796   9.322   5.252  0.3607  0.5980  0.8991
  465CHL1    H862639   1.905   9.341   5.254  0.3256  0.9299  0.0750
  465CHL1   C1462640   1.760   9.338   5.112 -0.3609  0.7233 -0.1645
  465CHL1   H1462641   1.654   9.312   5.092 -0.2109  1.7787 -2.8296
  465CHL1   C1562642   1.822   9.235   5.011 -0.4338 -0.0064 -0.8318
  465CHL1  H15A62643   1.931   9.246   5.029 -0.0710 -0.5837 -2.4789
  465CHL1  H15B62644   1.789   9.130   5.025  0.4147  0.0260  2.1693
  465CHL1   C1662645   1.784   9.305   4.877 -0.9202  0.4185  0.1708
  465CHL1  H16A62646   1.869   9.310   4.806  0.6008  0.3565  1.9334
  465CHL1  H16B62647   1.713   9.236   4.825  0.7945 -1.3062  0.0187
  465CHL1   C1762648   1.735   9.451   4.906 -0.5908 -0.4762  1.1763
  465CHL1   H1762649   1.624   9.451   4.893 -0.4798  0.4560  0.0289
  465CHL1   C1362650   1.778   9.479   5.053 -0.1427  0.8926 -0.3290
  465CHL1   C1862651   1.921   9.521   5.051 -1.0638  0.4340 -0.7015
  465CHL1  H18A62652   1.988   9.481   4.972  0.6947  1.4633  0.1904
  465CHL1  H18B62653   1.941   9.630   5.043 -3.0408  1.2229  3.0760
  465CHL1  H18C62654   1.960   9.491   5.151 -1.5080 -1.9991 -1.2057
  465CHL1   C1262655   1.691   9.576   5.132  0.0340  0.5972 -0.0967
  465CHL1  H12A62656   1.703   9.679   5.092 -2.0783  1.4125  1.1847
  465CHL1  H12B62657   1.584   9.552   5.115  0.3659 -0.4197 -0.8316
  465CHL1   C1162658   1.719   9.572   5.280 -0.2930  0.1847 -0.4337
  465CHL1  H11A62659   1.815   9.624   5.299  0.3744 -0.7286 -1.1662
  465CHL1  H11B62660   1.643   9.632   5.335  0.2570 -0.5916  1.2373
  465CHL1    C962661   1.714   9.424   5.333 -0.7146  0.3895 -0.3582
  465CHL1    H962662   1.608   9.394   5.327 -0.8726  0.6489  0.8930
  465CHL1   C1062663   1.737   9.414   5.486 -0.8611  0.3128  0.4036
  465CHL1   C1962664   1.871   9.495   5.519 -0.0423 -0.0259 -0.1013
  465CHL1  H19A62665   1.851   9.604   5.522  1.9566  0.3934 -0.4559
  465CHL1  H19B62666   1.919   9.460   5.613  0.5984  0.0607 -0.3896
  465CHL1  H19C62667   1.944   9.478   5.436  0.2651  0.9686 -0.0396
  465CHL1    C162668   1.632   9.482   5.572 -0.1212 -0.1200  0.3948
  465CHL1   H1A62669   1.638   9.592   5.561  2.2236 -0.0918  1.3354
  465CHL1   H1B62670   1.530   9.454   5.539  0.1297 -0.6715  0.0752
  465CHL1    C262671   1.642   9.462   5.721 -0.3114  0.4792 -0.2092
  465CHL1   H2A62672   1.557   9.511   5.773 -0.0899  2.9574 -2.0138
  465CHL1   H2B62673   1.742   9.496   5.758 -0.8923  0.7609  1.1629
  465CHL1   C2062674   1.777   9.544   4.784 -0.1825  0.5663 -0.5228
  465CHL1   H2062675   1.886   9.527   4.774 -0.1684  0.9842 -1.2052
  465CHL1   C2162676   1.730   9.681   4.820 -0.2329 -0.0514 -0.3152
  465CHL1  H21A62677   1.625   9.675   4.855 -0.9970 -0.7525 -2.5836
  465CHL1  H21B62678   1.733   9.747   4.731  1.1470  1.4943  0.7929
  465CHL1  H21C62679   1.800   9.719   4.898 -0.7998 -0.5952  0.4674
  465CHL1   C2262680   1.700   9.503   4.657  0.0316 -0.1917 -0.8013
  465CHL1  H22A62681   1.702   9.392   4.651  0.3030 -0.4711  2.5062
  465CHL1  H22B62682   1.597   9.542   4.673  0.4778  0.2371  1.4232
  465CHL1   C2362683   1.757   9.573   4.524  0.1157 -0.0923  0.1299
  465CHL1  H23A62684   1.754   9.684   4.525 -2.2274  0.1111 -4.4159
  465CHL1  H23B62685   1.864   9.541   4.522  0.3297  0.5994  0.1170
  465CHL1   C2462686   1.673   9.529   4.399 -0.0054 -0.1092  0.7153
  465CHL1  H24A62687   1.653   9.422   4.421 -0.2083 -0.3302 -0.5005
  465CHL1  H24B62688   1.579   9.587   4.412  0.1265  0.0661  0.8953
  465CHL1   C2562689   1.745   9.550   4.260 -0.4178  0.1601  0.0372
  465CHL1   H2562690   1.789   9.653   4.261  0.2893 -0.1232  1.8542
  465CHL1   C2662691   1.844   9.433   4.251  0.4243 -0.7060 -0.2642
  465CHL1  H26A62692   1.892   9.429   4.351 -2.0577 -0.6967  1.0284
  465CHL1  H26B62693   1.790   9.336   4.242 -0.3357 -0.1204 -2.4423
  465CHL1  H26C62694   1.914   9.447   4.167  0.4037 -2.7130 -0.6718
  465CHL1   C2762695   1.651   9.534   4.144  0.9043  0.2893 -0.1146
  465CHL1  H27A62696   1.585   9.446   4.158  0.8944  0.3000 -0.0954
  465CHL1  H27B62697   1.593   9.628   4.144  3.0446  1.6787  1.0147
  465CHL1  H27C62698   1.700   9.521   4.045 -1.2149  1.0333 -1.3298
  466CHL1    C362699   8.318   1.906   5.843 -0.1760 -0.0310 -0.1898
  466CHL1    H362700   8.220   1.951   5.817 -0.0589  1.3362  1.5892
  466CHL1    O362701   8.334   1.885   5.980  0.0494  0.5294  0.2758
  466CHL1   H3'62702   8.249   1.873   6.022 -0.5668  0.2006 -1.0084
  466CHL1    C462703   8.342   1.765   5.778  0.6199 -0.1130 -0.1152
  466CHL1   H4A62704   8.439   1.732   5.820 -0.1165  0.1228  1.8325
  466CHL1   H4B62705   8.266   1.703   5.830  1.5383 -0.1800  1.2026
  466CHL1    C562706   8.354   1.762   5.629  0.6165  0.7492 -0.4200
  466CHL1    C662707   8.276   1.682   5.559 -0.6495 -0.2564 -0.3530
  466CHL1    H662708   8.216   1.606   5.612 -1.1706  0.1631 -0.3314
  466CHL1    C762709   8.273   1.684   5.413  0.1993  0.4938  0.3142
  466CHL1   H7A62710   8.278   1.586   5.361  1.0915  1.4058 -1.4321
  466CHL1   H7B62711   8.173   1.717   5.378  0.1420 -1.0744 -1.1373
  466CHL1    C862712   8.391   1.753   5.341  1.0821 -0.8502  0.2029
  466CHL1    H862713   8.475   1.680   5.350  1.3822 -0.2821  2.4411
  466CHL1   C1462714   8.355   1.789   5.196 -0.4668 -0.1887 -0.2563
  466CHL1   H1462715   8.278   1.868   5.208 -1.8641 -1.4219 -0.7558
  466CHL1   C1562716   8.276   1.691   5.110 -0.6343 -0.4880 -0.0281
  466CHL1  H15A62717   8.324   1.594   5.132  0.5679 -0.2065 -1.2703
  466CHL1  H15B62718   8.166   1.695   5.129 -0.9832 -1.7274 -1.5869
  466CHL1   C1662719   8.303   1.732   4.963 -0.1941  0.1523 -0.0472
  466CHL1  H16A62720   8.351   1.649   4.906  1.9198  0.9065  0.5138
  466CHL1  H16B62721   8.207   1.756   4.915 -1.0372  2.4237  2.5335
  466CHL1   C1762722   8.398   1.864   4.978  0.1524  0.2341  0.1885
  466CHL1   H1762723   8.324   1.945   4.991  1.2740  1.1783  0.9284
  466CHL1   C1362724   8.468   1.851   5.109 -0.0673  0.3236  0.0046
  466CHL1   C1862725   8.575   1.737   5.101  0.0657  0.2706 -0.4338
  466CHL1  H18A62726   8.632   1.726   5.195  3.7499 -0.9032 -2.6178
  466CHL1  H18B62727   8.529   1.641   5.069 -1.9471  1.2658 -0.6875
  466CHL1  H18C62728   8.656   1.757   5.028 -0.0144  2.4102 -0.0103
  466CHL1   C1262729   8.511   1.984   5.186 -0.0029 -0.1844  0.2377
  466CHL1  H12A62730   8.598   2.025   5.129  1.6757 -1.3675  1.8071
  466CHL1  H12B62731   8.424   2.051   5.193  1.1327  1.3240  0.4525
  466CHL1   C1162732   8.543   1.953   5.334 -0.7213 -0.0444 -0.5011
  466CHL1  H11A62733   8.633   1.890   5.346 -1.6980 -1.3960 -0.0631
  466CHL1  H11B62734   8.571   2.049   5.383 -1.1208 -0.2169  0.0729
  466CHL1    C962735   8.429   1.884   5.412 -0.4689 -0.1536  0.0318
  466CHL1    H962736   8.343   1.951   5.391  0.3803  0.6106 -1.1558
  466CHL1   C1062737   8.446   1.867   5.569  0.8057 -0.1533  0.3317
  466CHL1   C1962738   8.591   1.823   5.597  0.1899 -0.1823 -0.4782
  466CHL1  H19A62739   8.654   1.915   5.597  0.0192 -0.0411 -2.3555
  466CHL1  H19B62740   8.610   1.778   5.697  2.1838  2.5427  0.5165
  466CHL1  H19C62741   8.620   1.742   5.527 -2.2536 -0.7677 -0.8743
  466CHL1    C162742   8.410   2.003   5.627 -0.4061 -0.7725 -1.3502
  466CHL1   H1A62743   8.477   2.088   5.600 -1.0477  0.6393  1.1337
  466CHL1   H1B62744   8.309   2.042   5.601  0.3339  1.3894 -1.2430
  466CHL1    C262745   8.417   2.011   5.783  1.1843  0.5664 -0.6029
  466CHL1   H2A62746   8.389   2.103   5.839 -1.0604 -1.6699  2.2769
  466CHL1   H2B62747   8.520   1.984   5.814  0.5396 -0.8507  0.4346
  466CHL1   C2062748   8.484   1.885   4.843 -0.0327 -0.3528  0.1262
  466CHL1   H2062749   8.521   1.786   4.810  2.0744  0.5062 -0.2297
  466CHL1   C2162750   8.608   1.981   4.863  0.5218 -0.2926 -0.2750
  466CHL1  H21A62751   8.690   1.935   4.924 -0.5210 -1.3147  0.4074
  466CHL1  H21B62752   8.599   2.090   4.877  2.1941  0.1120 -1.9347
  466CHL1  H21C62753   8.656   1.983   4.763 -1.3540  1.0226 -1.1916
  466CHL1   C2262754   8.386   1.938   4.736 -0.0249  0.3129 -0.2806
  466CHL1  H22A62755   8.285   1.892   4.735 -0.5865  1.4067  1.6544
  466CHL1  H22B62756   8.366   2.044   4.761 -0.2292  0.1797  0.1200
  466CHL1   C2362757   8.457   1.938   4.603  0.1224 -0.0049  0.7620
  466CHL1  H23A62758   8.539   2.013   4.600  1.9478 -1.9382 -0.5504
  466CHL1  H23B62759   8.513   1.846   4.576 -0.2316  0.0255 -0.0967
  466CHL1   C2462760   8.355   1.975   4.485 -0.1980  0.3226  0.0676
  466CHL1  H24A62761   8.294   1.884   4.471  0.7447 -0.2550 -0.3579
  466CHL1  H24B62762   8.283   2.053   4.519  1.1036  1.4955  0.2302
  466CHL1   C2562763   8.423   2.006   4.349  0.4942  0.2740 -0.0784
  466CHL1   H2562764   8.469   1.909   4.322 -2.5755 -1.2358 -0.2954
  466CHL1   C2662765   8.315   2.035   4.250 -0.3093 -0.1355  1.0904
  466CHL1  H26A62766   8.247   1.947   4.241  1.1006 -1.2637  1.0449
  466CHL1  H26B62767   8.251   2.123   4.271 -1.0663 -0.1575 -0.9956
  466CHL1  H26C62768   8.363   2.055   4.152 -1.0223  1.7570  1.1065
  466CHL1   C2762769   8.515   2.124   4.352  0.8379  0.0357 -0.9301
  466CHL1  H27A62770   8.599   2.105   4.423 -0.8744 -1.1326  0.8586
  466CHL1  H27B62771   8.564   2.153   4.256  1.1512  0.6131 -0.6017
  466CHL1  H27C62772   8.448   2.209   4.378 -1.8329 -1.6400 -1.9754
  467CHL1    C362773  10.366   8.775   5.465 -0.5236 -0.1282 -0.0294
  467CHL1    H362774  10.423   8.868   5.485 -1.1942 -0.2457  2.7614
  467CHL1    O362775  10.349   8.706   5.585 -0.1062 -0.1717 -0.8197
  467CHL1   H3'62776  10.256   8.685   5.580  0.5635 -3.6509 -0.8342
  467CHL1    C462777  10.233   8.810   5.402  0.3795 -0.6989  0.0659
  467CHL1   H4A62778  10.167   8.721   5.412 -0.0334 -0.2512  1.5346
  467CHL1   H4B62779  10.177   8.880   5.467  0.5514  0.6041 -1.1406
  467CHL1    C562780  10.238   8.859   5.259 -0.4979 -0.3247  0.5163
  467CHL1    C662781  10.182   8.981   5.225 -0.3086 -1.0176 -0.5528
  467CHL1    H662782  10.124   9.036   5.301  2.1467 -2.5862  2.7699
  467CHL1    C762783  10.180   9.039   5.086 -0.2118  0.6388 -0.7789
  467CHL1   H7A62784  10.076   9.059   5.052 -0.6524  2.4142  1.3903
  467CHL1   H7B62785  10.240   9.132   5.094 -0.1399  0.4638  1.2800
  467CHL1    C862786  10.232   8.934   4.983 -0.1687 -0.3357  0.2962
  467CHL1    H862787  10.150   8.860   4.968  0.5769 -1.4357  1.4725
  467CHL1   C1462788  10.266   9.004   4.853 -0.4994 -0.0968 -0.6134
  467CHL1   H1462789  10.348   9.074   4.878  0.4443 -1.5815  0.5785
  467CHL1   C1562790  10.163   9.099   4.795  0.5677  0.0620 -0.4966
  467CHL1  H15A62791  10.069   9.043   4.778  0.4724 -0.3067  1.0898
  467CHL1  H15B62792  10.135   9.188   4.856 -0.9652 -0.5732 -0.2351
  467CHL1   C1662793  10.217   9.122   4.649  0.0468  0.2193  1.0355
  467CHL1  H16A62794  10.133   9.099   4.581  0.1579 -1.6322  1.4658
  467CHL1  H16B62795  10.251   9.226   4.629  2.0073 -0.3281  1.2709
  467CHL1   C1762796  10.345   9.032   4.625 -0.0344  0.5839 -0.1096
  467CHL1   H1762797  10.426   9.096   4.666 -0.8022  0.4529  1.6911
  467CHL1   C1362798  10.337   8.924   4.736 -0.1392 -0.2476  0.0081
  467CHL1   C1862799  10.241   8.817   4.679  0.0262 -0.1407  0.4848
  467CHL1  H18A62800  10.187   8.778   4.767 -0.0118 -0.4211  0.3383
  467CHL1  H18B62801  10.171   8.858   4.603  2.1350  0.9473 -0.9688
  467CHL1  H18C62802  10.298   8.733   4.634  1.1521  0.8782 -0.0497
  467CHL1   C1262803  10.459   8.854   4.790  0.6646  0.3007 -0.3753
  467CHL1  H12A62804  10.510   8.790   4.716 -0.6820  0.9229 -1.9132
  467CHL1  H12B62805  10.538   8.927   4.819  1.5727 -0.1384 -1.6448
  467CHL1   C1162806  10.420   8.774   4.920  0.2003 -0.2597  0.4766
  467CHL1  H11A62807  10.366   8.683   4.886  0.1258  0.0189 -0.1773
  467CHL1  H11B62808  10.514   8.736   4.964  1.7393  2.6364 -0.0380
  467CHL1    C962809  10.355   8.862   5.031 -1.1699  0.4801 -0.8834
  467CHL1    H962810  10.425   8.940   5.066  0.9091 -1.3032 -0.8196
  467CHL1   C1062811  10.326   8.778   5.162  0.0320 -0.4742  0.5012
  467CHL1   C1962812  10.244   8.651   5.120 -0.5002 -0.0576  0.1407
  467CHL1  H19A62813  10.149   8.674   5.066  1.4246  0.0667 -3.4943
  467CHL1  H19B62814  10.307   8.582   5.060  1.0966  0.8936  0.6864
  467CHL1  H19C62815  10.231   8.596   5.215  1.6123  0.1944  0.6275
  467CHL1    C162816  10.466   8.738   5.235 -0.2402 -0.4971  0.4371
  467CHL1   H1A62817  10.532   8.671   5.176 -1.5103 -0.8977 -0.5675
  467CHL1   H1B62818  10.523   8.831   5.255  2.7103 -2.3465  1.1861
  467CHL1    C262819  10.451   8.683   5.375 -0.0902  0.6164 -0.2528
  467CHL1   H2A62820  10.549   8.669   5.424 -0.0364 -1.9028 -0.9587
  467CHL1   H2B62821  10.396   8.587   5.375 -0.0743  0.5385 -2.5793
  467CHL1   C2062822  10.372   9.000   4.472  0.0612 -0.4226  0.0779
  467CHL1   H2062823  10.293   8.940   4.422 -1.0817  1.1473 -0.0675
  467CHL1   C2162824  10.501   8.924   4.452 -0.6448  0.6206  0.2286
  467CHL1  H21A62825  10.497   8.840   4.524  2.1253 -1.5854 -1.9481
  467CHL1  H21B62826  10.584   8.988   4.490  0.0682 -0.5486  0.6987
  467CHL1  H21C62827  10.521   8.887   4.349  0.6882 -0.8105  0.9557
  467CHL1   C2262828  10.378   9.137   4.398  0.4824 -0.2730 -0.2847
  467CHL1  H22A62829  10.278   9.183   4.409  0.0053 -1.4176  0.2531
  467CHL1  H22B62830  10.449   9.204   4.452  1.5160  0.1819 -2.0847
  467CHL1   C2362831  10.409   9.123   4.249  0.3629 -0.0947  0.8418
  467CHL1  H23A62832  10.513   9.088   4.234  0.3100  0.7650 -2.0300
  467CHL1  H23B62833  10.343   9.046   4.202  0.4687  0.3634 -0.0609
  467CHL1   C2462834  10.377   9.245   4.160  0.9402  0.8315  0.3468
  467CHL1  H24A62835  10.429   9.336   4.198 -0.5006  1.8959 -0.1481
  467CHL1  H24B62836  10.419   9.214   4.063  2.9065  0.1989  1.3533
  467CHL1   C2562837  10.232   9.283   4.140  0.2671  0.4433  0.4218
  467CHL1   H2562838  10.182   9.284   4.239 -0.7135  0.4133 -0.0546
  467CHL1   C2662839  10.235   9.430   4.089 -0.5666 -0.2518 -0.2460
  467CHL1  H26A62840  10.281   9.505   4.157  0.4143 -0.1515 -1.0059
  467CHL1  H26B62841  10.290   9.444   3.994 -0.3353 -1.1475 -0.2518
  467CHL1  H26C62842  10.130   9.463   4.074 -1.0362 -1.7395 -0.3964
  467CHL1   C2762843  10.150   9.188   4.053  0.4297  0.1420  0.9686
  467CHL1  H27A62844  10.059   9.245   4.022  0.4487 -0.0441  0.5708
  467CHL1  H27B62845  10.210   9.166   3.962  1.7487  1.7835  1.4054
  467CHL1  H27C62846  10.128   9.092   4.104 -1.5920 -1.6372 -2.8281
  468CHL1    C362847   3.661   0.922   5.440 -0.6755 -0.1995 -0.2944
  468CHL1    H362848   3.736   1.003   5.431 -1.4953  0.9480  2.1866
  468CHL1    O362849   3.616   0.906   5.575  0.2982 -0.4470 -0.3125
  468CHL1   H3'62850   3.521   0.919   5.584  0.4027 -0.2249  0.5402
  468CHL1    C462851   3.542   0.932   5.348 -0.2747 -0.0779 -0.1853
  468CHL1   H4A62852   3.466   0.853   5.369 -1.2182  0.3720 -1.7559
  468CHL1   H4B62853   3.488   1.025   5.375  0.3563 -0.6028  3.3708
  468CHL1    C562854   3.577   0.931   5.200 -0.1148  0.5568  0.5715
  468CHL1    C662855   3.550   1.030   5.114  0.3119  0.5613  0.4721
  468CHL1    H662856   3.501   1.120   5.153 -1.0723  1.0451 -2.1663
  468CHL1    C762857   3.598   1.044   4.972  0.4818  0.7114  0.1870
  468CHL1   H7A62858   3.508   1.086   4.923 -1.4293 -1.6508  1.4629
  468CHL1   H7B62859   3.686   1.111   4.962 -0.3478  1.5558 -1.8212
  468CHL1    C862860   3.623   0.898   4.919  0.1451 -0.1554 -0.4490
  468CHL1    H862861   3.525   0.845   4.916  0.2238 -0.3743  0.4555
  468CHL1   C1462862   3.686   0.914   4.783  0.2562 -0.2343 -0.0817
  468CHL1   H1462863   3.782   0.970   4.784  0.3673 -0.4300  1.0337
  468CHL1   C1562864   3.596   0.990   4.681 -0.4823  0.6216  0.1359
  468CHL1  H15A62865   3.489   0.961   4.683 -0.6839  1.2698 -0.7707
  468CHL1  H15B62866   3.591   1.097   4.708 -0.4868  0.3026  1.4697
  468CHL1   C1662867   3.668   0.964   4.543 -0.3755  0.0470 -0.7752
  468CHL1  H16A62868   3.598   0.939   4.461 -2.5162 -0.3803  1.0819
  468CHL1  H16B62869   3.743   1.043   4.520 -0.5584  0.4993  0.1216
  468CHL1   C1762870   3.761   0.840   4.574  0.2327 -0.7538  0.5916
  468CHL1   H1762871   3.861   0.888   4.583 -0.7605  1.3222  0.9659
  468CHL1   C1362872   3.722   0.786   4.711 -0.4793 -0.5147  0.5447
  468CHL1   C1862873   3.597   0.690   4.693 -0.8459 -0.0186 -0.0995
  468CHL1  H18A62874   3.523   0.738   4.626  0.4932  1.5033 -0.5542
  468CHL1  H18B62875   3.632   0.595   4.649  0.6281  0.7239 -0.5989
  468CHL1  H18C62876   3.540   0.669   4.786 -0.5624 -4.5289 -0.7245
  468CHL1   C1262877   3.834   0.718   4.796  0.3067 -0.0857 -0.0270
  468CHL1  H12A62878   3.848   0.617   4.751 -3.0087 -0.8887  0.4649
  468CHL1  H12B62879   3.924   0.780   4.780  1.4837 -1.2366  1.7280
  468CHL1   C1162880   3.791   0.700   4.939 -0.6653 -0.3575  0.1721
  468CHL1  H11A62881   3.716   0.619   4.952 -0.5292 -0.1051  3.4776
  468CHL1  H11B62882   3.873   0.660   5.003  0.0825 -3.8923 -2.6741
  468CHL1    C962883   3.725   0.821   5.011 -0.1265 -0.7545  0.1708
  468CHL1    H962884   3.806   0.896   5.017 -1.9563  1.2749  1.0726
  468CHL1   C1062885   3.658   0.805   5.157 -0.0111 -0.4598  0.2614
  468CHL1   C1962886   3.565   0.675   5.165  0.4327  0.7116  0.2451
  468CHL1  H19A62887   3.625   0.583   5.150 -0.0290  0.7267 -2.1339
  468CHL1  H19B62888   3.502   0.673   5.256  0.3231 -1.5462  0.1774
  468CHL1  H19C62889   3.494   0.689   5.080 -0.4203  3.1729  1.2718
  468CHL1    C162890   3.781   0.794   5.253  0.0162 -0.2224  0.2380
  468CHL1   H1A62891   3.848   0.709   5.232 -0.9438 -1.3490  1.5866
  468CHL1   H1B62892   3.849   0.881   5.239 -1.3000  0.5113 -2.4219
  468CHL1    C262893   3.737   0.796   5.402 -0.5516 -0.6115 -0.3094
  468CHL1   H2A62894   3.836   0.794   5.454 -0.6126  1.2900 -0.0734
  468CHL1   H2B62895   3.675   0.710   5.436  1.0133 -1.2354  1.1463
  468CHL1   C2062896   3.763   0.748   4.445 -0.5116  0.3568  0.6255
  468CHL1   H2062897   3.678   0.677   4.439 -0.4963  0.4605 -1.2468
  468CHL1   C2162898   3.884   0.647   4.450  0.2094  0.2528 -0.5300
  468CHL1  H21A62899   3.984   0.694   4.458 -0.3042  1.4365 -0.8140
  468CHL1  H21B62900   3.885   0.571   4.368 -2.8675 -1.4699  0.8760
  468CHL1  H21C62901   3.881   0.587   4.543 -2.0393 -0.8529 -1.2393
  468CHL1   C2262902   3.757   0.816   4.302  0.3483  0.6741  0.0606
  468CHL1  H22A62903   3.787   0.738   4.230 -0.7349  0.7089 -0.4536
  468CHL1  H22B62904   3.650   0.821   4.273  0.4720 -1.9195 -1.1105
  468CHL1   C2362905   3.854   0.927   4.278 -0.1895 -0.1191 -0.3424
  468CHL1  H23A62906   3.808   1.020   4.318 -2.6559 -1.3726 -0.0653
  468CHL1  H23B62907   3.948   0.919   4.337 -1.0263  1.5792  1.3435
  468CHL1   C2462908   3.871   0.976   4.134  0.2117 -0.6131  0.0065
  468CHL1  H24A62909   3.912   0.892   4.074 -0.3196 -0.4459 -0.6039
  468CHL1  H24B62910   3.774   0.985   4.081  0.0624 -0.9841  0.2157
  468CHL1   C2562911   3.970   1.092   4.110  0.4846 -0.4066  0.6078
  468CHL1   H2562912   4.059   1.070   4.172  0.4930  1.9230  1.5037
  468CHL1   C2662913   4.005   1.093   3.960  0.0196  0.1803  0.2309
  468CHL1  H26A62914   3.915   1.133   3.909  1.3014  2.7717 -0.1338
  468CHL1  H26B62915   4.071   1.179   3.937  1.4644 -1.9354 -5.1953
  468CHL1  H26C62916   4.048   0.997   3.923 -0.1299 -0.9346  2.7342
  468CHL1   C2762917   3.904   1.222   4.154 -0.4324 -0.1325  0.2310
  468CHL1  H27A62918   3.967   1.312   4.135 -0.0073 -0.8147 -1.7635
  468CHL1  H27B62919   3.804   1.235   4.109  0.1670 -0.9785 -1.4181
  468CHL1  H27C62920   3.889   1.214   4.264  0.4948 -0.5647  0.3370
  469CHL1    C362921   3.947   9.517   5.381  0.2867  0.6913 -0.5241
  469CHL1    H362922   3.997   9.612   5.351 -0.2144  0.2385 -3.0497
  469CHL1    O362923   3.901   9.542   5.518  0.3096  0.1494 -0.1873
  469CHL1   H3'62924   3.968   9.586   5.570 -1.7716  0.7147  2.2497
  469CHL1    C462925   3.824   9.492   5.296  0.9057 -0.4372  0.4060
  469CHL1   H4A62926   3.751   9.430   5.352 -0.6697  1.2334  0.3049
  469CHL1   H4B62927   3.771   9.589   5.292 -0.7554 -1.1065  3.4055
  469CHL1    C562928   3.854   9.425   5.161 -0.2033 -0.3034 -0.1405
  469CHL1    C662929   3.801   9.473   5.043 -0.2708  0.0580 -0.5420
  469CHL1    H662930   3.733   9.559   5.038  0.4361  0.8057  1.6675
  469CHL1    C762931   3.829   9.408   4.913  0.1244  0.2641  0.1338
  469CHL1   H7A62932   3.730   9.404   4.863 -0.3344  0.3420  1.0075
  469CHL1   H7B62933   3.894   9.477   4.855  1.7487  0.6788  2.3080
  469CHL1    C862934   3.895   9.268   4.920 -0.0474 -0.2403  0.2696
  469CHL1    H862935   3.817   9.195   4.950  1.1633 -1.5224  0.4329
  469CHL1   C1462936   3.946   9.231   4.786 -0.0236 -0.9102  0.6445
  469CHL1   H1462937   4.024   9.302   4.752 -0.7069 -0.4840 -0.0487
  469CHL1   C1562938   3.838   9.233   4.674  0.1184  0.0759 -0.1655
  469CHL1  H15A62939   3.751   9.184   4.723  0.1823 -1.1311 -1.2218
  469CHL1  H15B62940   3.798   9.333   4.647  2.4602  0.4340 -2.6952
  469CHL1   C1662941   3.893   9.137   4.562 -0.1986 -0.3399 -0.0806
  469CHL1  H16A62942   3.821   9.057   4.537  0.3450 -1.2387  1.1813
  469CHL1  H16B62943   3.916   9.209   4.480 -2.5547  0.9114  0.2518
  469CHL1   C1762944   4.028   9.081   4.619  0.6203 -0.6962 -0.0597
  469CHL1   H1762945   4.106   9.156   4.592 -0.5994  0.1396 -1.4009
  469CHL1   C1362946   4.009   9.095   4.777 -0.0931 -0.2896  0.2841
  469CHL1   C1862947   3.914   8.983   4.828  0.2795  0.3695 -0.4557
  469CHL1  H18A62948   3.972   8.890   4.808  1.2504  1.1972 -1.6619
  469CHL1  H18B62949   3.904   8.981   4.938 -1.6630 -2.5082 -0.5651
  469CHL1  H18C62950   3.813   8.990   4.783  0.5355 -0.9812 -1.3241
  469CHL1   C1262951   4.139   9.121   4.860 -0.0926 -0.5459  0.1743
  469CHL1  H12A62952   4.185   9.020   4.863 -1.2282 -1.0791  0.1372
  469CHL1  H12B62953   4.208   9.186   4.802 -0.8304 -0.3287 -0.4632
  469CHL1   C1162954   4.122   9.173   5.005  0.2753  0.1735  0.7202
  469CHL1  H11A62955   4.089   9.086   5.067 -0.0268  1.0501  1.8229
  469CHL1  H11B62956   4.217   9.215   5.044 -0.1323  1.1071  0.7307
  469CHL1    C962957   4.010   9.279   5.020 -0.4190 -0.5652  0.6644
  469CHL1    H962958   4.071   9.368   4.992  0.9662 -0.8384  2.5530
  469CHL1   C1062959   3.964   9.314   5.166  0.0243 -0.0904  0.6326
  469CHL1   C1962960   3.907   9.178   5.227 -0.4455 -0.4584 -0.3877
  469CHL1  H19A62961   3.826   9.140   5.161  0.0148  2.0117 -2.5233
  469CHL1  H19B62962   3.986   9.100   5.243 -0.6855 -0.2939  1.8474
  469CHL1  H19C62963   3.871   9.201   5.329  2.7768  2.7202  0.2695
  469CHL1    C162964   4.087   9.350   5.253 -0.7712  0.2947 -0.4963
  469CHL1   H1A62965   4.143   9.255   5.268  0.0600  0.4849 -2.2040
  469CHL1   H1B62966   4.155   9.422   5.203 -0.0121  0.6970  1.0384
  469CHL1    C262967   4.043   9.397   5.394 -0.1800 -0.9415 -0.3291
  469CHL1   H2A62968   4.135   9.429   5.447 -0.7405  0.6610 -0.2722
  469CHL1   H2B62969   3.994   9.313   5.449 -0.4864  0.3506  1.4624
  469CHL1   C2062970   4.068   8.948   4.564 -0.4307  0.0151  0.2774
  469CHL1   H2062971   4.001   8.869   4.602 -2.6949  1.0350 -1.3663
  469CHL1   C2162972   4.220   8.920   4.600 -0.5190  0.4788  0.4207
  469CHL1  H21A62973   4.288   9.007   4.582  1.5329 -1.4382 -1.7579
  469CHL1  H21B62974   4.256   8.832   4.543  0.0612  0.8925  0.1260
  469CHL1  H21C62975   4.234   8.890   4.706 -0.3084 -0.2019  0.2056
  469CHL1   C2262976   4.062   8.940   4.411  0.6162  0.3715  0.4607
  469CHL1  H22A62977   3.960   8.976   4.385  1.1082  2.4749  1.2348
  469CHL1  H22B62978   4.131   9.018   4.373  0.5701  0.9043  1.4457
  469CHL1   C2362979   4.099   8.798   4.346 -0.0651 -0.3662  0.3577
  469CHL1  H23A62980   4.207   8.789   4.321 -0.1880 -0.4683 -0.1388
  469CHL1  H23B62981   4.067   8.714   4.413 -1.4368 -0.1237  0.0287
  469CHL1   C2462982   4.019   8.767   4.212  0.5701  0.0814 -0.2717
  469CHL1  H24A62983   3.912   8.763   4.244  0.7664  2.1777  0.7829
  469CHL1  H24B62984   4.021   8.854   4.142 -0.0407  0.0705 -0.3075
  469CHL1   C2562985   4.052   8.632   4.138  0.6458 -0.1445 -0.0300
  469CHL1   H2562986   3.993   8.629   4.044 -1.1458  1.3295  0.9633
  469CHL1   C2662987   4.196   8.615   4.104  0.0352  0.0657 -0.1369
  469CHL1  H26A62988   4.225   8.702   4.042 -0.4049  1.4676  1.5470
  469CHL1  H26B62989   4.263   8.620   4.193  1.5212 -0.7768 -1.1545
  469CHL1  H26C62990   4.195   8.519   4.048 -2.6195  0.8149 -1.5459
  469CHL1   C2762991   3.997   8.516   4.222 -0.0496  0.2687 -0.4541
  469CHL1  H27A62992   3.979   8.436   4.147  0.5215 -0.8788  0.6014
  469CHL1  H27B62993   4.062   8.481   4.306  0.1585  0.6010 -0.4767
  469CHL1  H27C62994   3.901   8.546   4.270  0.2654  1.3590 -0.4939
  470CHL1    C362995   0.765   6.891   5.158  0.3613  0.4535  0.1180
  470CHL1    H362996   0.671   6.945   5.135  0.3044  0.4099  0.2457
  470CHL1    O362997   0.764   6.885   5.298 -0.2282  0.3534  0.2463
  470CHL1   H3'62998   0.678   6.924   5.313 -1.8065 -3.0377  1.1732
  470CHL1    C462999   0.769   6.743   5.090 -0.7207  0.2476  0.1090
  470CHL1   H4A63000   0.861   6.695   5.130 -1.1411 -0.1204  0.6574
  470CHL1   H4B63001   0.678   6.688   5.123 -0.2545 -0.5335  0.0927
  470CHL1    C563002   0.771   6.755   4.942 -0.4094 -0.5276 -0.0147
  470CHL1    C663003   0.693   6.692   4.859 -0.1646 -0.5708  0.2230
  470CHL1    H663004   0.611   6.629   4.898  0.7914 -0.8645  1.8616
  470CHL1    C763005   0.711   6.690   4.714 -0.1717  0.0209  0.6579
  470CHL1   H7A63006   0.709   6.585   4.679 -0.2165 -0.5483  2.2585
  470CHL1   H7B63007   0.617   6.730   4.670 -0.9988 -1.3337  1.1053
  470CHL1    C863008   0.845   6.741   4.658  0.3679 -0.8351 -0.0461
  470CHL1    H863009   0.919   6.663   4.682  0.6375 -0.7333 -0.5346
  470CHL1   C1463010   0.833   6.773   4.515 -0.5244 -0.7609  0.8049
  470CHL1   H1463011   0.753   6.850   4.513 -2.2893 -2.4836  1.4198
  470CHL1   C1563012   0.779   6.664   4.420  0.4671 -0.0000 -0.0369
  470CHL1  H15A63013   0.818   6.569   4.461 -0.5407 -0.1197  0.6824
  470CHL1  H15B63014   0.668   6.662   4.415  0.5132 -0.5703 -2.4085
  470CHL1   C1663015   0.846   6.704   4.284 -0.4437 -0.6233  0.1333
  470CHL1  H16A63016   0.912   6.619   4.253  3.0290  1.0128  2.4037
  470CHL1  H16B63017   0.760   6.723   4.216 -0.2538 -0.2689 -0.0083
  470CHL1   C1763018   0.920   6.839   4.307 -0.2762  0.5602  0.4931
  470CHL1   H1763019   0.841   6.917   4.302 -0.1918  0.6885  1.0380
  470CHL1   C1363020   0.968   6.835   4.451  0.2781 -0.3924  0.0043
  470CHL1   C1863021   1.091   6.741   4.466  0.2216  0.3659  0.1703
  470CHL1  H18A63022   1.073   6.639   4.427  1.6397  0.8561 -1.9889
  470CHL1  H18B63023   1.179   6.791   4.419  0.3699 -1.6314 -1.8242
  470CHL1  H18C63024   1.108   6.721   4.574  2.7545 -1.1171 -0.4396
  470CHL1   C1263025   0.985   6.973   4.513 -0.5001 -0.7257  0.3617
  470CHL1  H12A63026   1.071   7.029   4.470 -1.3071  0.9713  0.8807
  470CHL1  H12B63027   0.893   7.033   4.493  0.8567  1.0397 -0.9290
  470CHL1   C1163028   0.994   6.955   4.663 -0.4398 -0.4778 -0.8336
  470CHL1  H11A63029   1.093   6.908   4.680  0.3768  1.6447  0.6615
  470CHL1  H11B63030   0.994   7.057   4.707  4.2674  0.1891 -1.7744
  470CHL1    C963031   0.878   6.876   4.737 -0.1744  0.4584  0.2180
  470CHL1    H963032   0.785   6.936   4.728  0.1056  0.7284 -1.1666
  470CHL1   C1063033   0.889   6.848   4.890  0.5282 -0.4485  1.0479
  470CHL1   C1963034   1.016   6.762   4.912 -0.0603 -0.3060 -0.5153
  470CHL1  H19A63035   1.097   6.803   4.849 -0.3545  3.0086  1.0479
  470CHL1  H19B63036   1.054   6.766   5.017  3.3446 -0.2453 -1.6269
  470CHL1  H19C63037   1.009   6.655   4.883  2.1317 -0.4116 -0.8527
  470CHL1    C163038   0.894   6.983   4.961  0.4878 -0.4142 -0.2103
  470CHL1   H1A63039   0.985   7.043   4.938  0.1640 -0.2314 -1.0614
  470CHL1   H1B63040   0.814   7.048   4.919  2.1230  1.6792 -0.2192
  470CHL1    C263041   0.881   6.977   5.115  0.0926  0.0096 -0.2510
  470CHL1   H2A63042   0.867   7.083   5.146  1.7242  0.0767  0.3176
  470CHL1   H2B63043   0.976   6.940   5.158  0.5365 -1.2374 -2.1594
  470CHL1   C2063044   1.025   6.861   4.206  0.2537 -0.7661 -0.2095
  470CHL1   H2063045   1.111   6.792   4.221  0.5765 -0.1147  1.0101
  470CHL1   C2163046   1.067   7.008   4.202  0.5635 -0.3043 -0.3744
  470CHL1  H21A63047   1.119   7.043   4.294 -2.2319  1.2465  0.7468
  470CHL1  H21B63048   0.981   7.076   4.182  1.1764  0.9226  0.9540
  470CHL1  H21C63049   1.140   7.026   4.121  0.3709  1.3087 -0.2363
  470CHL1   C2263050   0.979   6.815   4.060  0.0027 -1.0539  0.4458
  470CHL1  H22A63051   0.969   6.705   4.047  2.7901 -1.2898 -0.4456
  470CHL1  H22B63052   0.879   6.861   4.048 -0.5537 -2.7430 -2.4124
  470CHL1   C2363053   1.068   6.865   3.940  0.4840  0.2614 -0.3003
  470CHL1  H23A63054   1.038   6.967   3.907 -0.3299 -0.2406 -1.1750
  470CHL1  H23B63055   1.175   6.870   3.970 -0.1081  2.4850  1.7511
  470CHL1   C2463056   1.044   6.780   3.816 -0.3957 -0.0080  0.6615
  470CHL1  H24A63057   1.049   6.670   3.834 -4.0738 -0.9602 -2.7148
  470CHL1  H24B63058   0.938   6.802   3.795 -0.5333  1.4056  2.6408
  470CHL1   C2563059   1.129   6.828   3.689 -0.2572 -0.3249  0.0547
  470CHL1   H2563060   1.113   6.936   3.669  0.2919 -0.2234  0.1398
  470CHL1   C2663061   1.279   6.803   3.689 -0.2593  0.0604 -0.4273
  470CHL1  H26A63062   1.319   6.829   3.589  1.5095  0.8332  0.4391
  470CHL1  H26B63063   1.328   6.880   3.753 -2.2394  0.4961  0.6235
  470CHL1  H26C63064   1.298   6.702   3.732 -0.7051  1.0835  2.3169
  470CHL1   C2763065   1.073   6.747   3.566 -0.3443  0.0395  0.4100
  470CHL1  H27A63066   1.083   6.640   3.594 -2.5838  0.2533  2.4112
  470CHL1  H27B63067   0.966   6.771   3.548  0.1277  0.7809 -1.6573
  470CHL1  H27C63068   1.128   6.782   3.476 -0.5472  1.0126  0.6449
  471CHL1    C363069   9.916   5.101   4.933 -0.0838  0.1291  0.1312
  471CHL1    H363070   9.852   5.027   4.984  0.1712 -0.4642 -0.3929
  471CHL1    O363071   9.942   5.213   5.027  0.5297  0.0606  0.0752
  471CHL1   H3'63072  10.014   5.265   4.990 -0.4348  1.0802 -0.4113
  471CHL1    C463073  10.042   5.033   4.888 -0.3876 -0.4245 -0.0367
  471CHL1   H4A63074  10.123   5.106   4.867  1.3133 -2.1156  0.3252
  471CHL1   H4B63075  10.077   4.980   4.979  1.1939 -0.1329 -0.4550
  471CHL1    C563076  10.019   4.938   4.772 -0.3200 -0.1607  0.2834
  471CHL1    C663077  10.057   4.810   4.787  0.3395 -0.2121  0.7173
  471CHL1    H663078  10.112   4.782   4.878  1.3925  1.0437  0.4873
  471CHL1    C763079  10.047   4.706   4.679 -0.6230 -1.1865 -0.1551
  471CHL1   H7A63080  10.139   4.648   4.656 -0.3656 -0.9833  0.3362
  471CHL1   H7B63081   9.990   4.615   4.706  1.4676 -2.6942 -0.5938
  471CHL1    C863082  10.003   4.760   4.542  0.0641 -0.2046 -0.1126
  471CHL1    H863083  10.090   4.799   4.485  1.2629 -0.3850  1.5339
  471CHL1   C1463084   9.934   4.641   4.468  0.0280 -0.4314 -0.2524
  471CHL1   H1463085   9.843   4.617   4.527 -0.6557  1.8971 -0.2880
  471CHL1   C1563086  10.017   4.512   4.444 -0.0265 -0.0655  0.0102
  471CHL1  H15A63087  10.120   4.543   4.417 -0.1946 -0.0505 -0.6155
  471CHL1  H15B63088  10.018   4.451   4.537 -1.4173 -1.6855 -0.9802
  471CHL1   C1663089   9.942   4.444   4.329 -1.1668 -0.1445  0.3820
  471CHL1  H16A63090  10.032   4.420   4.267  0.2258  1.3494  1.7189
  471CHL1  H16B63091   9.889   4.361   4.379 -0.4127  0.7794  2.8448
  471CHL1   C1763092   9.836   4.549   4.278  0.1831  0.2148 -0.3301
  471CHL1   H1763093   9.751   4.534   4.349  0.9769 -1.0595  0.3801
  471CHL1   C1363094   9.885   4.687   4.324 -0.0181  0.3318  0.3722
  471CHL1   C1863095  10.011   4.735   4.240 -0.6755  0.0002 -0.1732
  471CHL1  H18A63096  10.060   4.820   4.291  1.1020 -0.5300 -0.8934
  471CHL1  H18B63097  10.091   4.659   4.224  0.6334  0.6279  2.8460
  471CHL1  H18C63098   9.983   4.762   4.136 -0.7106  0.5098 -0.0329
  471CHL1   C1263099   9.773   4.796   4.337 -0.8874  0.4419 -0.0810
  471CHL1  H12A63100   9.726   4.825   4.240  0.0451  0.2042 -0.6168
  471CHL1  H12B63101   9.708   4.746   4.412  1.0673 -1.4495  0.4634
  471CHL1   C1163102   9.829   4.912   4.419  0.4923 -0.2157 -0.0268
  471CHL1  H11A63103   9.904   4.965   4.356  2.1972 -1.1545  1.1579
  471CHL1  H11B63104   9.745   4.985   4.425  0.3927 -0.2905 -0.4487
  471CHL1    C963105   9.890   4.872   4.557  0.2703 -0.0471 -0.5615
  471CHL1    H963106   9.812   4.821   4.617 -1.3282  1.5643 -1.1729
  471CHL1   C1063107   9.939   4.991   4.645  0.1792  0.6393  0.5448
  471CHL1   C1963108  10.031   5.087   4.563 -0.6025  0.6005  0.8511
  471CHL1  H19A63109  10.058   5.179   4.619  2.4966 -0.2189  0.8322
  471CHL1  H19B63110  10.126   5.040   4.532 -0.1418  1.7270  0.5048
  471CHL1  H19C63111   9.990   5.122   4.466  1.7533  2.1908  0.3634
  471CHL1    C163112   9.811   5.063   4.709  0.2931 -0.4957 -0.1778
  471CHL1   H1A63113   9.740   5.096   4.630 -1.2563 -1.1772  0.8593
  471CHL1   H1B63114   9.752   4.988   4.766  0.6939 -1.5160 -1.0686
  471CHL1    C263115   9.840   5.164   4.819 -1.0154  0.3617  0.6962
  471CHL1   H2A63116   9.754   5.216   4.866 -1.5867  0.0740 -0.0193
  471CHL1   H2B63117   9.912   5.238   4.778 -0.4863 -0.4737  0.0967
  471CHL1   C2063118   9.787   4.548   4.134  0.1468  0.0748  0.6835
  471CHL1   H2063119   9.758   4.647   4.093 -0.5743 -0.7798 -0.9578
  471CHL1   C2163120   9.655   4.468   4.139  0.7603  0.3525  0.0981
  471CHL1  H21A63121   9.667   4.360   4.163  1.2218  0.0801 -1.2790
  471CHL1  H21B63122   9.607   4.459   4.039 -1.3683 -0.8516  1.1439
  471CHL1  H21C63123   9.585   4.519   4.208  2.3600  1.1054  1.2251
  471CHL1   C2263124   9.886   4.491   4.029  0.7938 -1.2520 -0.5038
  471CHL1  H22A63125   9.977   4.554   4.026  0.4548 -0.6431  1.1046
  471CHL1  H22B63126   9.904   4.386   4.061 -0.8654 -1.9561 -1.7412
  471CHL1   C2363127   9.829   4.488   3.885 -0.2086 -0.1920  0.7866
  471CHL1  H23A63128   9.906   4.421   3.840 -0.3711 -1.2000  1.9535
  471CHL1  H23B63129   9.732   4.435   3.871 -0.8214  1.3949 -1.5769
  471CHL1   C2463130   9.828   4.622   3.813  0.5451  1.1357 -0.1294
  471CHL1  H24A63131   9.758   4.688   3.869  1.8377  1.6521  0.9036
  471CHL1  H24B63132   9.926   4.670   3.829  0.2342  1.7045  0.1181
  471CHL1   C2563133   9.789   4.620   3.664 -0.1614 -0.2267  0.1449
  471CHL1   H2563134   9.683   4.595   3.646 -0.4070  1.2743 -0.5922
  471CHL1   C2663135   9.800   4.761   3.607 -0.2473 -0.5779  0.7683
  471CHL1  H26A63136   9.904   4.795   3.589 -1.1040  0.8526 -2.0551
  471CHL1  H26B63137   9.769   4.754   3.501 -0.7760 -0.6940  0.9247
  471CHL1  H26C63138   9.736   4.841   3.648  0.5323  0.7843 -0.5902
  471CHL1   C2763139   9.864   4.520   3.581 -0.0240 -0.3701 -0.7471
  471CHL1  H27A63140   9.974   4.531   3.576  0.1660 -2.2939 -2.3403
  471CHL1  H27B63141   9.844   4.415   3.613 -1.9681 -0.0168 -0.6952
  471CHL1  H27C63142   9.828   4.533   3.477 -2.5744 -1.7049 -0.1093
  472CHL1    C363143  10.630   9.868   5.364  0.1247 -0.5089  0.1597
  472CHL1    H363144  10.690   9.961   5.366  0.4645 -0.7360  1.2327
  472CHL1    O363145  10.530   9.872   5.463  0.1076  0.2696 -0.7823
  472CHL1   H3'63146  10.499   9.782   5.477 -2.8752  1.1048 -1.1645
  472CHL1    C463147  10.551   9.872   5.236 -0.2211  0.2063  0.0715
  472CHL1   H4A63148  10.485   9.784   5.228 -1.3992  1.1163 -0.6012
  472CHL1   H4B63149  10.498   9.970   5.236 -1.0555 -0.2174  1.6462
  472CHL1    C563150  10.646   9.874   5.122 -0.2673 -0.1270 -0.2816
  472CHL1    C663151  10.642   9.965   5.025  0.0740  0.1901 -0.3709
  472CHL1    H663152  10.565  10.043   5.027  0.0277  0.1318  0.1835
  472CHL1    C763153  10.726   9.972   4.898  0.9464 -0.6891  0.2975
  472CHL1   H7A63154  10.658   9.988   4.812 -0.6850 -1.3569  1.4254
  472CHL1   H7B63155  10.787  10.065   4.909 -0.2611  0.3742 -1.4277
  472CHL1    C863156  10.812   9.850   4.886  0.2199  1.4490 -0.2833
  472CHL1    H863157  10.747   9.776   4.834  1.1214  0.2481  0.2472
  472CHL1   C1463158  10.930   9.869   4.798 -0.6961 -0.2826 -1.1958
  472CHL1   H1463159  10.997   9.937   4.855  0.2359 -1.6381 -0.6280
  472CHL1   C1563160  10.911   9.952   4.668  0.2108 -0.3806  0.0474
  472CHL1  H15A63161  10.819   9.931   4.610 -1.0056  0.2246  1.6790
  472CHL1  H15B63162  10.900  10.060   4.694 -0.0879 -0.4783  0.3280
  472CHL1   C1663163  11.041   9.928   4.590 -0.1367  0.0612  0.5005
  472CHL1  H16A63164  11.009   9.885   4.493 -1.8067  0.4805  0.8269
  472CHL1  H16B63165  11.097  10.022   4.573 -1.0823  0.2930 -1.6134
  472CHL1   C1763166  11.123   9.826   4.672 -0.3073 -0.1375 -0.4452
  472CHL1   H1763167  11.183   9.883   4.747 -0.9797  1.2767 -0.9499
  472CHL1   C1363168  11.018   9.753   4.765 -0.0281 -0.1315 -0.2080
  472CHL1   C1863169  10.934   9.662   4.681 -0.0811  0.5375  0.5557
  472CHL1  H18A63170  10.998   9.592   4.624 -0.4926 -0.3746  1.1957
  472CHL1  H18B63171  10.877   9.599   4.753  1.7594 -0.2416  1.4175
  472CHL1  H18C63172  10.859   9.703   4.610 -0.0015 -1.4653 -0.7555
  472CHL1   C1263173  11.065   9.698   4.900 -0.1079 -0.4135  0.4815
  472CHL1  H12A63174  11.133   9.611   4.889 -0.5315 -0.6325 -0.4842
  472CHL1  H12B63175  11.126   9.772   4.956 -1.8054  0.6100  1.0442
  472CHL1   C1163176  10.952   9.667   5.002  0.2781 -0.0984 -0.1027
  472CHL1  H11A63177  10.896   9.590   4.943  0.8654  0.2402 -1.1258
  472CHL1  H11B63178  10.980   9.626   5.101  1.7735  0.4882 -0.2559
  472CHL1    C963179  10.862   9.791   5.025 -0.0464 -0.6663  0.1275
  472CHL1    H963180  10.919   9.880   5.062 -0.6173  0.6856 -2.0530
  472CHL1   C1063181  10.748   9.765   5.119 -0.2202 -0.1960 -0.7319
  472CHL1   C1963182  10.673   9.637   5.082  0.4180 -0.6175  0.4388
  472CHL1  H19A63183  10.624   9.660   4.985  0.0744 -0.6829  0.5944
  472CHL1  H19B63184  10.730   9.542   5.074 -1.1412 -1.5002 -0.7839
  472CHL1  H19C63185  10.591   9.618   5.155 -0.2503 -1.1435 -0.4273
  472CHL1    C163186  10.815   9.742   5.260  0.2713  0.1010  0.2826
  472CHL1   H1A63187  10.876   9.649   5.262 -0.8636 -0.6896  2.7276
  472CHL1   H1B63188  10.883   9.827   5.285  0.7509 -0.7180  1.9345
  472CHL1    C263189  10.708   9.735   5.366  0.0244  0.0187  0.3917
  472CHL1   H2A63190  10.756   9.735   5.466  0.1235 -1.9939  0.3750
  472CHL1   H2B63191  10.647   9.643   5.359  0.3162 -0.0590 -1.7340
  472CHL1   C2063192  11.226   9.749   4.586  0.1450 -1.0367 -0.1100
  472CHL1   H2063193  11.165   9.700   4.506 -1.9349 -0.1536  0.8535
  472CHL1   C2163194  11.296   9.634   4.662  0.2919 -0.1589 -0.2833
  472CHL1  H21A63195  11.366   9.675   4.738  0.7147 -1.3247 -0.0308
  472CHL1  H21B63196  11.356   9.569   4.594 -1.6303 -0.1096 -2.1303
  472CHL1  H21C63197  11.225   9.561   4.706  0.9188 -2.0249 -2.2171
  472CHL1   C2263198  11.329   9.847   4.534 -0.6543  0.5235 -0.0054
  472CHL1  H22A63199  11.293   9.948   4.505  0.6046  0.1769 -3.1572
  472CHL1  H22B63200  11.382   9.871   4.629 -0.8295  0.6158  0.0696
  472CHL1   C2363201  11.439   9.792   4.454 -0.0001  0.1895  0.1317
  472CHL1  H23A63202  11.494   9.715   4.512 -3.0729 -0.6360  2.1909
  472CHL1  H23B63203  11.391   9.745   4.365 -1.4074 -0.8405  1.3836
  472CHL1   C2463204  11.540   9.906   4.415 -0.2725 -0.0782 -0.9843
  472CHL1  H24A63205  11.475   9.989   4.380 -0.7491 -0.0510 -0.0850
  472CHL1  H24B63206  11.592   9.940   4.507 -1.1893 -1.0788 -0.0518
  472CHL1   C2563207  11.641   9.851   4.313  0.4624 -0.3054  0.2632
  472CHL1   H2563208  11.583   9.829   4.220  0.0715 -0.2951  0.5035
  472CHL1   C2663209  11.742   9.955   4.265 -0.6141 -0.7098 -0.2427
  472CHL1  H26A63210  11.688  10.036   4.211  0.1099 -0.0132  0.0595
  472CHL1  H26B63211  11.800  10.002   4.347  2.1455  1.4070 -3.1634
  472CHL1  H26C63212  11.819   9.906   4.202 -0.2455 -1.1591  0.5351
  472CHL1   C2763213  11.717   9.730   4.365 -0.0188 -0.0339 -0.6340
  472CHL1  H27A63214  11.793   9.694   4.292  2.5975  1.8354  1.0087
  472CHL1  H27B63215  11.788   9.766   4.442  1.3563  0.5426 -2.1368
  472CHL1  H27C63216  11.649   9.652   4.407 -1.3244  1.5832  0.3707
  473CHL1    C363217   1.614   7.280   5.564  0.4583  0.8608  0.8668
  473CHL1    H363218   1.553   7.188   5.547  1.0423  0.8812 -1.8643
  473CHL1    O363219   1.615   7.302   5.700 -0.2671 -0.1117 -1.0389
  473CHL1   H3'63220   1.690   7.254   5.735 -0.2911  0.9818  0.6264
  473CHL1    C463221   1.759   7.248   5.514  0.6015 -0.1800 -0.0678
  473CHL1   H4A63222   1.830   7.328   5.543 -1.0085  1.6758 -1.0252
  473CHL1   H4B63223   1.799   7.158   5.566 -1.9580 -1.5351 -0.2218
  473CHL1    C563224   1.769   7.234   5.359 -0.1118 -0.1639  0.2733
  473CHL1    C663225   1.834   7.129   5.302  0.5888 -0.2777 -0.3817
  473CHL1    H663226   1.881   7.055   5.368  1.8731 -0.9658 -1.9964
  473CHL1    C763227   1.853   7.107   5.151 -0.2618 -0.1765 -0.5179
  473CHL1   H7A63228   1.957   7.087   5.115  0.1141 -0.5997  0.7151
  473CHL1   H7B63229   1.785   7.026   5.117 -1.1175  0.4635 -0.3579
  473CHL1    C863230   1.807   7.230   5.072 -0.1504 -0.0428 -0.5876
  473CHL1    H863231   1.892   7.302   5.071 -0.9639  0.9368 -1.2108
  473CHL1   C1463232   1.778   7.200   4.928 -0.1653 -0.2191 -0.0250
  473CHL1   H1463233   1.679   7.150   4.930  0.7246 -2.0847  1.1616
  473CHL1   C1563234   1.879   7.103   4.860  0.2862  0.1658  0.4384
  473CHL1  H15A63235   1.980   7.147   4.872  0.7188 -0.3207 -1.1630
  473CHL1  H15B63236   1.876   6.999   4.899 -3.5719 -0.2148 -0.4334
  473CHL1   C1663237   1.835   7.121   4.707  0.0005 -0.1384  0.4146
  473CHL1  H16A63238   1.930   7.120   4.649 -0.3209  0.8985 -0.1435
  473CHL1  H16B63239   1.772   7.036   4.672  1.5310 -0.0907 -2.8228
  473CHL1   C1763240   1.747   7.247   4.699 -0.2220 -0.7127 -0.5841
  473CHL1   H1763241   1.645   7.202   4.703 -0.2449 -0.7348 -1.2658
  473CHL1   C1363242   1.760   7.317   4.835  0.2546 -0.3883  0.4258
  473CHL1   C1863243   1.883   7.406   4.831 -0.2249  0.6825 -0.1409
  473CHL1  H18A63244   1.877   7.494   4.763 -0.3810  0.0763 -0.9331
  473CHL1  H18B63245   1.895   7.456   4.929  0.8870  1.1830 -0.5239
  473CHL1  H18C63246   1.981   7.359   4.808 -0.5942  0.2501 -0.8570
  473CHL1   C1263247   1.630   7.386   4.886  0.3757 -0.6905 -0.6113
  473CHL1  H12A63248   1.611   7.484   4.838  3.0514  0.4733  0.5008
  473CHL1  H12B63249   1.539   7.324   4.871 -0.2778  0.1822 -0.2783
  473CHL1   C1163250   1.648   7.427   5.029 -0.0317  0.0141 -0.2841
  473CHL1  H11A63251   1.729   7.502   5.036  0.5214 -0.5765 -0.2927
  473CHL1  H11B63252   1.551   7.471   5.062  0.8869  2.0843 -0.1916
  473CHL1    C963253   1.684   7.306   5.124  0.0495 -0.5192  0.2142
  473CHL1    H963254   1.607   7.229   5.099 -0.7167  0.1245  0.5311
  473CHL1   C1063255   1.692   7.337   5.278  0.5639  0.3653  0.4116
  473CHL1   C1963256   1.766   7.471   5.291 -0.3621 -0.0451  0.3828
  473CHL1  H19A63257   1.808   7.490   5.392  0.7892 -1.4451  0.2065
  473CHL1  H19B63258   1.855   7.475   5.224 -0.2416 -2.6211  0.2817
  473CHL1  H19C63259   1.707   7.564   5.274 -0.8333  0.0978  2.5348
  473CHL1    C163260   1.553   7.349   5.337  0.4173  0.3628 -0.5490
  473CHL1   H1A63261   1.497   7.425   5.278  0.6339  0.2979 -0.8410
  473CHL1   H1B63262   1.505   7.249   5.326  0.0488  0.6759 -2.0893
  473CHL1    C263263   1.539   7.386   5.491 -0.5847  0.1662 -0.3665
  473CHL1   H2A63264   1.432   7.374   5.517 -0.8602 -0.7112 -1.7960
  473CHL1   H2B63265   1.586   7.486   5.502  1.0072 -0.7070  1.2634
  473CHL1   C2063266   1.770   7.331   4.576 -0.0634 -0.1918 -0.2159
  473CHL1   H2063267   1.875   7.365   4.570 -0.3312  0.9174  0.8931
  473CHL1   C2163268   1.674   7.453   4.566 -0.4324  0.3053  0.5267
  473CHL1  H21A63269   1.567   7.426   4.552 -0.4431 -0.1191  1.3488
  473CHL1  H21B63270   1.717   7.516   4.485  0.2637  0.0846  0.7155
  473CHL1  H21C63271   1.683   7.525   4.651 -0.0164  3.1520 -1.7659
  473CHL1   C2263272   1.763   7.235   4.444  0.5633 -0.6642  0.2103
  473CHL1  H22A63273   1.807   7.134   4.462 -0.6406 -1.1274  0.6127
  473CHL1  H22B63274   1.656   7.230   4.416  0.1768 -0.7983  1.6492
  473CHL1   C2363275   1.833   7.292   4.314  0.2718 -0.5730  0.0491
  473CHL1  H23A63276   1.797   7.223   4.235  0.8798 -0.8375 -0.0057
  473CHL1  H23B63277   1.811   7.396   4.284 -2.9239 -1.3345 -0.6016
  473CHL1   C2463278   1.990   7.267   4.319 -0.4910  0.4554  1.0493
  473CHL1  H24A63279   2.029   7.334   4.399  2.0079 -1.6627  1.7535
  473CHL1  H24B63280   2.014   7.161   4.343  1.3887  0.3944 -0.8365
  473CHL1   C2563281   2.062   7.295   4.181  0.8093 -0.0196  0.7992
  473CHL1   H2563282   2.011   7.388   4.150 -2.4534 -2.2653 -1.1759
  473CHL1   C2663283   2.213   7.297   4.199 -0.3946  0.0865  0.1816
  473CHL1  H26A63284   2.234   7.205   4.258 -0.1117  0.0777  0.0681
  473CHL1  H26B63285   2.255   7.290   4.097  1.3890  0.0154  0.8879
  473CHL1  H26C63286   2.258   7.394   4.230  1.1384 -0.1220 -1.2365
  473CHL1   C2763287   2.023   7.192   4.073  0.1447  0.4731 -0.1207
  473CHL1  H27A63288   1.915   7.212   4.053  0.0539  3.0243  2.2519
  473CHL1  H27B63289   2.072   7.209   3.975 -2.6800 -0.0420 -1.7284
  473CHL1  H27C63290   2.052   7.088   4.098  1.4553  1.0713  0.9724
  474CHL1    C363291   4.994   5.334   5.543  0.1502 -1.1315 -0.5504
  474CHL1    H363292   5.099   5.353   5.509  0.5381 -0.8873  0.7373
  474CHL1    O363293   4.972   5.357   5.684  0.1149  0.5204 -0.0637
  474CHL1   H3'63294   4.892   5.307   5.704  0.7307 -0.5212 -0.1178
  474CHL1    C463295   4.899   5.432   5.472  0.1715 -0.0447 -0.0719
  474CHL1   H4A63296   4.800   5.422   5.522 -0.4133 -0.8923 -1.3367
  474CHL1   H4B63297   4.929   5.537   5.490  0.7758 -0.3114  0.5360
  474CHL1    C563298   4.898   5.413   5.324  0.5154 -0.6072  0.1071
  474CHL1    C663299   4.931   5.519   5.252 -0.1238  0.5352 -0.6405
  474CHL1    H663300   4.939   5.616   5.303  1.3691  0.8754 -1.4541
  474CHL1    C763301   4.940   5.520   5.097 -0.2270  0.2826 -0.0748
  474CHL1   H7A63302   4.884   5.607   5.057  0.2229  1.6406  2.0916
  474CHL1   H7B63303   5.047   5.532   5.070 -0.6241  1.2824 -1.3332
  474CHL1    C863304   4.884   5.387   5.037  0.5469  0.6790 -0.2210
  474CHL1    H863305   4.773   5.385   5.043  0.6474  0.0968  2.6697
  474CHL1   C1463306   4.929   5.369   4.892 -0.1938  0.2937 -0.2762
  474CHL1   H1463307   5.040   5.373   4.896 -0.1800 -0.7882  0.8506
  474CHL1   C1563308   4.892   5.489   4.804  0.5140  0.2259 -0.4688
  474CHL1  H15A63309   4.788   5.528   4.817  1.0204  1.0509  1.4296
  474CHL1  H15B63310   4.958   5.576   4.824  1.0613  0.7582 -3.9419
  474CHL1   C1663311   4.916   5.437   4.659  0.4921 -0.3147 -0.4689
  474CHL1  H16A63312   4.819   5.444   4.605  1.5032 -0.1088 -2.3769
  474CHL1  H16B63313   4.996   5.499   4.614  1.1674 -0.4316  0.5416
  474CHL1   C1763314   4.937   5.283   4.674 -0.4283 -0.3300  0.4661
  474CHL1   H1763315   5.048   5.277   4.674 -0.3414  0.7415 -0.7040
  474CHL1   C1363316   4.890   5.246   4.815 -0.5622 -0.4845  0.2600
  474CHL1   C1863317   4.734   5.232   4.819  0.0966 -0.3856 -0.5233
  474CHL1  H18A63318   4.703   5.228   4.925 -0.2733 -2.4701 -0.6654
  474CHL1  H18B63319   4.681   5.320   4.775  1.8356  1.1413  0.3146
  474CHL1  H18C63320   4.702   5.134   4.777  1.6749  0.2930 -3.5948
  474CHL1   C1263321   4.960   5.136   4.905 -0.1238  0.6525  0.2646
  474CHL1  H12A63322   4.950   5.036   4.857  0.0973  0.2978  0.9347
  474CHL1  H12B63323   5.068   5.162   4.900 -0.6915  3.1442 -0.2989
  474CHL1   C1163324   4.915   5.132   5.047  0.3735  0.5698  0.2548
  474CHL1  H11A63325   4.807   5.105   5.052  0.4381  0.5546  2.8936
  474CHL1  H11B63326   4.966   5.045   5.095  0.8491  0.5710 -0.2339
  474CHL1    C963327   4.932   5.264   5.124 -0.2760 -0.1746  0.3800
  474CHL1    H963328   5.042   5.279   5.117 -0.1947 -1.3289 -1.4596
  474CHL1   C1063329   4.885   5.269   5.273  0.2673 -0.6281 -0.1235
  474CHL1   C1963330   4.744   5.218   5.286 -0.2864 -0.2580 -0.0676
  474CHL1  H19A63331   4.725   5.118   5.241 -1.1928  0.3952 -1.1892
  474CHL1  H19B63332   4.700   5.216   5.388  1.8135  0.0317  0.8864
  474CHL1  H19C63333   4.678   5.293   5.237  1.7166 -0.1651 -2.8812
  474CHL1    C163334   4.985   5.183   5.349  0.0836  0.1245 -0.1937
  474CHL1   H1A63335   4.961   5.082   5.308  2.1045  0.2092 -1.7900
  474CHL1   H1B63336   5.086   5.212   5.311 -0.1074  1.8603  0.5706
  474CHL1    C263337   4.972   5.186   5.501  0.0795 -0.3046 -0.7180
  474CHL1   H2A63338   5.043   5.116   5.550  0.4339  0.9820  0.6949
  474CHL1   H2B63339   4.866   5.170   5.530 -0.6523  2.0005 -1.8823
  474CHL1   C2063340   4.890   5.200   4.555 -0.3621 -0.1646  0.1981
  474CHL1   H2063341   4.780   5.211   4.541 -0.8112 -0.4625  2.8995
  474CHL1   C2163342   4.911   5.053   4.579 -0.4377 -0.9094  0.3210
  474CHL1  H21A63343   5.016   5.039   4.610  0.5306 -0.5257 -2.4919
  474CHL1  H21B63344   4.893   4.986   4.493  1.2191 -0.2913 -0.5417
  474CHL1  H21C63345   4.842   5.023   4.661  2.1467  2.8966  4.3087
  474CHL1   C2263346   4.961   5.232   4.420 -0.4847  0.2606  0.7228
  474CHL1  H22A63347   4.996   5.337   4.423  0.9629 -0.1631 -0.2128
  474CHL1  H22B63348   5.050   5.166   4.407 -0.7524  0.3774 -2.5866
  474CHL1   C2363349   4.874   5.202   4.301 -0.5294  0.4271 -0.1901
  474CHL1  H23A63350   4.856   5.092   4.299  0.5978  0.0927  3.0598
  474CHL1  H23B63351   4.774   5.246   4.315 -1.2899 -1.3831  0.3719
  474CHL1   C2463352   4.935   5.252   4.169 -0.4412  0.5453 -0.3082
  474CHL1  H24A63353   4.972   5.357   4.170  0.6065  0.2050  0.8638
  474CHL1  H24B63354   5.030   5.199   4.146 -1.4427 -1.2088 -0.5270
  474CHL1   C2563355   4.839   5.251   4.050 -0.0723 -0.1236 -0.2317
  474CHL1   H2563356   4.751   5.313   4.079 -1.0029 -0.7624 -1.5481
  474CHL1   C2663357   4.903   5.321   3.926 -0.2453  0.4751  0.3638
  474CHL1  H26A63358   4.932   5.426   3.948  1.7861  0.0075  0.1009
  474CHL1  H26B63359   4.986   5.258   3.887  0.3654  2.0071 -0.9091
  474CHL1  H26C63360   4.824   5.326   3.848 -0.5021 -0.9462  0.5016
  474CHL1   C2763361   4.790   5.107   4.013  0.0088  0.2093  0.2979
  474CHL1  H27A63362   4.870   5.029   4.006 -0.3933 -0.1225 -0.8032
  474CHL1  H27B63363   4.712   5.081   4.087  0.1492 -0.7492  0.1280
  474CHL1  H27C63364   4.744   5.117   3.912  0.1375  0.4050  0.2578
  475CHL1    C363365  10.980   9.205   5.253  0.6668  0.4128 -0.2792
  475CHL1    H363366  10.891   9.260   5.213 -0.3695 -1.6859 -1.0039
  475CHL1    O363367  11.005   9.271   5.376  0.4236  0.1820 -0.1907
  475CHL1   H3'63368  11.088   9.233   5.406  0.9918  2.0092  0.7363
  475CHL1    C463369  10.950   9.059   5.279 -0.5806  0.6026 -0.2925
  475CHL1   H4A63370  11.047   9.030   5.325  0.0935  1.0130 -1.4108
  475CHL1   H4B63371  10.878   9.042   5.361 -1.5879  0.4158 -1.1955
  475CHL1    C563372  10.916   8.982   5.152  0.4052 -0.0103  0.0423
  475CHL1    C663373  10.795   8.922   5.141 -0.5181  0.5540 -0.1153
  475CHL1    H663374  10.722   8.946   5.220 -0.1433  1.4113 -0.0168
  475CHL1    C763375  10.765   8.830   5.023 -0.2111  1.0171  0.3247
  475CHL1   H7A63376  10.735   8.730   5.062  0.3977  0.5146 -0.4657
  475CHL1   H7B63377  10.678   8.859   4.960 -1.5867 -0.0538  1.6682
  475CHL1    C863378  10.887   8.813   4.929 -0.7979 -0.3566 -0.0475
  475CHL1    H863379  10.956   8.739   4.973 -1.3902 -1.8981 -1.5903
  475CHL1   C1463380  10.839   8.758   4.796  0.1565 -0.6498  0.1513
  475CHL1   H1463381  10.774   8.835   4.749 -0.7999 -2.4497 -1.6069
  475CHL1   C1563382  10.765   8.625   4.807 -0.4218 -0.1177  0.1995
  475CHL1  H15A63383  10.808   8.546   4.874 -2.8956 -0.8959  0.9569
  475CHL1  H15B63384  10.662   8.627   4.847 -0.7841  2.7209 -0.6686
  475CHL1   C1663385  10.759   8.579   4.660 -0.7752 -1.1073 -0.2373
  475CHL1  H16A63386  10.787   8.471   4.658 -1.1306 -1.2013 -1.9310
  475CHL1  H16B63387  10.654   8.586   4.622 -1.6526 -2.6632  1.7163
  475CHL1   C1763388  10.856   8.670   4.581  0.1123 -0.3308  0.6953
  475CHL1   H1763389  10.803   8.759   4.540 -0.1597 -0.2966  1.1102
  475CHL1   C1363390  10.949   8.734   4.689  0.0798 -0.0080  0.0932
  475CHL1   C1863391  11.060   8.626   4.731  0.6239 -0.0525  0.4108
  475CHL1  H18A63392  11.004   8.533   4.757 -2.7278  0.9374 -2.3908
  475CHL1  H18B63393  11.127   8.609   4.645 -0.2191  1.5932 -0.6366
  475CHL1  H18C63394  11.128   8.658   4.813  0.3758 -0.9178  0.9657
  475CHL1   C1263395  11.004   8.875   4.667  0.2269 -0.3617 -0.4578
  475CHL1  H12A63396  11.078   8.881   4.584  0.8049 -1.4700 -0.0418
  475CHL1  H12B63397  10.921   8.938   4.629  0.9328 -0.4433 -2.2520
  475CHL1   C1163398  11.064   8.937   4.794 -0.5250  0.4280  0.8036
  475CHL1  H11A63399  11.153   8.871   4.806 -0.3858  0.3937 -0.3162
  475CHL1  H11B63400  11.105   9.035   4.761 -2.3010  0.4011 -1.8282
  475CHL1    C963401  10.965   8.944   4.911 -0.3385  0.0892  0.3735
  475CHL1    H963402  10.885   9.016   4.882  0.3659  0.4692 -0.6430
  475CHL1   C1063403  11.025   8.990   5.046 -0.1286 -0.0509 -0.1676
  475CHL1   C1963404  11.135   8.895   5.097 -0.3725 -0.7653 -0.3720
  475CHL1  H19A63405  11.090   8.798   5.127 -1.8610 -0.5510 -1.7733
  475CHL1  H19B63406  11.203   8.886   5.010 -3.6579 -0.7944 -3.1634
  475CHL1  H19C63407  11.193   8.941   5.180 -0.2628 -1.8877  0.1831
  475CHL1    C163408  11.067   9.133   5.028 -0.1395 -0.2991 -0.2042
  475CHL1   H1A63409  11.152   9.143   4.958 -0.1601  2.0656  0.0241
  475CHL1   H1B63410  10.987   9.202   4.992  0.9196  2.1935  1.8224
  475CHL1    C263411  11.100   9.218   5.155  1.0356 -1.1086  0.3102
  475CHL1   H2A63412  11.123   9.325   5.140 -1.2456 -0.6313 -0.1576
  475CHL1   H2B63413  11.186   9.175   5.211  0.6536 -0.2476  1.6016
  475CHL1   C2063414  10.919   8.603   4.461 -0.0173 -0.1299  0.3412
  475CHL1   H2063415  10.958   8.506   4.498 -0.3752 -0.1495  0.6708
  475CHL1   C2163416  11.024   8.696   4.394  0.4268  0.3666 -0.2315
  475CHL1  H21A63417  11.105   8.710   4.468 -0.3166 -1.3403  0.9526
  475CHL1  H21B63418  10.983   8.793   4.359  0.3577  1.5774  2.9325
  475CHL1  H21C63419  11.071   8.648   4.305 -2.5076  0.0348 -1.7267
  475CHL1   C2263420  10.809   8.564   4.359 -0.7895  0.1723 -0.6389
  475CHL1  H22A63421  10.861   8.504   4.281 -1.9162 -0.9334 -0.5661
  475CHL1  H22B63422  10.734   8.503   4.414 -0.7024 -0.1687 -0.8928
  475CHL1   C2363423  10.734   8.679   4.295 -0.6331 -0.3940 -0.2700
  475CHL1  H23A63424  10.703   8.761   4.362  1.5482  0.7837 -0.5987
  475CHL1  H23B63425  10.803   8.734   4.228 -0.5825 -0.0414  0.0750
  475CHL1   C2463426  10.627   8.626   4.204 -0.3077 -0.2517 -0.0596
  475CHL1  H24A63427  10.555   8.563   4.260  0.7208 -1.7740 -0.3924
  475CHL1  H24B63428  10.575   8.714   4.160  0.9666  0.2122 -0.6920
  475CHL1   C2563429  10.686   8.535   4.087  0.5969  0.2512  0.5421
  475CHL1   H2563430  10.720   8.440   4.133 -2.4443 -1.1152  0.1404
  475CHL1   C2663431  10.572   8.497   3.985  0.0058 -0.6930 -0.3495
  475CHL1  H26A63432  10.489   8.440   4.032 -0.9585  2.3862  1.9975
  475CHL1  H26B63433  10.536   8.598   3.955  0.9347  1.0153  3.6506
  475CHL1  H26C63434  10.610   8.435   3.901  2.2014  0.6608 -0.4144
  475CHL1   C2763435  10.794   8.596   4.003 -0.9140  0.1696  0.4495
  475CHL1  H27A63436  10.886   8.614   4.062 -0.7500 -2.5621  1.1695
  475CHL1  H27B63437  10.812   8.525   3.920  1.1436 -1.0078  1.8207
  475CHL1  H27C63438  10.756   8.694   3.968  1.2233  0.9392  0.1538
  476CHL1    C363439   1.326  10.800   5.882  0.4745 -0.2772  0.7126
  476CHL1    H363440   1.401  10.860   5.826 -1.3382  0.4342 -1.0552
  476CHL1    O363441   1.351  10.807   6.019 -0.0452 -0.1042 -0.1761
  476CHL1   H3'63442   1.262  10.800   6.056  0.5694  1.0610  1.6626
  476CHL1    C463443   1.181  10.856   5.852 -1.2104  0.7846 -0.2701
  476CHL1   H4A63444   1.100  10.814   5.915 -0.1713 -0.4020  0.3150
  476CHL1   H4B63445   1.175  10.961   5.888 -1.7967  0.7449 -0.2447
  476CHL1    C563446   1.150  10.861   5.704  0.3642 -0.1228  0.3632
  476CHL1    C663447   1.117  10.971   5.639  0.2206 -0.1482  0.0986
  476CHL1    H663448   1.095  11.066   5.690  2.0157  0.0922  0.4818
  476CHL1    C763449   1.099  10.976   5.489 -0.1788 -0.4779 -0.7238
  476CHL1   H7A63450   1.003  11.026   5.464 -0.5014 -0.7999 -0.1331
  476CHL1   H7B63451   1.188  11.029   5.449 -0.2427 -2.6646 -4.2184
  476CHL1    C863452   1.098  10.835   5.424  0.2560  0.4277  0.0229
  476CHL1    H863453   0.995  10.793   5.424  0.0773  0.8499 -0.5971
  476CHL1   C1463454   1.136  10.850   5.277 -0.5512  0.6625  0.4417
  476CHL1   H1463455   1.242  10.880   5.290 -0.4200  0.3809  0.0413
  476CHL1   C1563456   1.077  10.968   5.195 -0.1254  0.0810 -0.1284
  476CHL1  H15A63457   0.970  10.973   5.228 -0.2752 -1.9129 -0.2158
  476CHL1  H15B63458   1.137  11.056   5.225 -2.6717  2.5312 -1.6862
  476CHL1   C1663459   1.105  10.924   5.053  0.6502 -0.8247  0.1846
  476CHL1  H16A63460   1.016  10.940   4.988  1.6796  0.6279 -0.9052
  476CHL1  H16B63461   1.176  10.998   5.012 -0.6030 -1.2622 -3.1129
  476CHL1   C1763462   1.165  10.779   5.054 -0.5340  0.2089 -0.3207
  476CHL1   H1763463   1.276  10.780   5.058 -0.5300 -1.1883  0.6099
  476CHL1   C1363464   1.127  10.719   5.197  0.7184 -0.0780  0.3956
  476CHL1   C1863465   0.976  10.660   5.194 -0.7259 -0.7797  0.2263
  476CHL1  H18A63466   0.910  10.738   5.150  1.0953  0.7245  0.0254
  476CHL1  H18B63467   0.978  10.565   5.136  1.2221 -1.0088  0.6104
  476CHL1  H18C63468   0.939  10.622   5.292 -0.3655 -2.0567 -0.1074
  476CHL1   C1263469   1.228  10.621   5.259 -0.6518  0.0682 -0.2290
  476CHL1  H12A63470   1.214  10.528   5.200  1.4765  0.4685 -1.4782
  476CHL1  H12B63471   1.329  10.665   5.246  0.3024 -1.0269  2.7277
  476CHL1   C1163472   1.210  10.601   5.413 -0.3930  0.9806  0.0119
  476CHL1  H11A63473   1.123  10.534   5.426 -1.4008  2.2270 -0.1032
  476CHL1  H11B63474   1.301  10.546   5.445 -1.8620 -1.8035 -0.2575
  476CHL1    C963475   1.200  10.737   5.481  0.7026  0.4680  0.2167
  476CHL1    H963476   1.298  10.787   5.472  0.7298  0.9065  2.3539
  476CHL1   C1063477   1.169  10.724   5.632  0.5331 -0.4536 -0.1596
  476CHL1   C1963478   1.042  10.636   5.664 -0.1108 -0.6073 -0.3404
  476CHL1  H19A63479   1.018  10.614   5.770 -2.3867 -0.0629 -0.7058
  476CHL1  H19B63480   0.952  10.691   5.629  0.7843  1.3588  0.2747
  476CHL1  H19C63481   1.046  10.537   5.614 -0.3906  1.2350 -4.4465
  476CHL1    C163482   1.301  10.655   5.686  0.1650  0.2355  0.3556
  476CHL1   H1A63483   1.307  10.547   5.659  2.5561  0.2190  0.7132
  476CHL1   H1B63484   1.394  10.705   5.651 -0.4520  0.2419 -1.3366
  476CHL1    C263485   1.326  10.655   5.839 -0.5674  0.3458 -0.1768
  476CHL1   H2A63486   1.419  10.604   5.870 -0.2419  1.0316  0.0062
  476CHL1   H2B63487   1.241  10.593   5.874  0.7029 -0.6533  1.2285
  476CHL1   C2063488   1.126  10.704   4.929  0.1422 -0.0636 -0.8898
  476CHL1   H2063489   1.015  10.704   4.923 -0.1089  2.7529  1.5768
  476CHL1   C2163490   1.181  10.558   4.941 -0.6894 -0.6766  0.2570
  476CHL1  H21A63491   1.161  10.490   4.856  2.2719 -0.8695 -0.3716
  476CHL1  H21B63492   1.135  10.509   5.030 -0.8267 -1.9499 -0.4970
  476CHL1  H21C63493   1.291  10.564   4.951 -0.6883  4.3497  0.0404
  476CHL1   C2263494   1.190  10.764   4.801  0.9288 -0.1513 -0.6158
  476CHL1  H22A63495   1.179  10.874   4.790  2.1324 -0.0831 -1.3645
  476CHL1  H22B63496   1.296  10.732   4.810  1.0543  0.5062  0.5393
  476CHL1   C2363497   1.131  10.705   4.667  0.1773 -0.3985 -0.0325
  476CHL1  H23A63498   1.138  10.594   4.673  2.3586 -0.3926 -1.3657
  476CHL1  H23B63499   1.028  10.743   4.646  0.6299  1.2990  0.6396
  476CHL1   C2463500   1.213  10.736   4.539 -0.0037  0.5662  0.0036
  476CHL1  H24A63501   1.187  10.838   4.504  2.7772  1.7685  1.1356
  476CHL1  H24B63502   1.322  10.723   4.556  0.1782 -3.5688 -2.9073
  476CHL1   C2563503   1.186  10.646   4.417 -0.9660  0.0806  0.6713
  476CHL1   H2563504   1.241  10.550   4.424 -1.8767 -0.3999  1.4760
  476CHL1   C2663505   1.035  10.620   4.390 -0.2954  0.0051 -0.5054
  476CHL1  H26A63506   1.015  10.539   4.317 -0.5789  0.4428 -0.9192
  476CHL1  H26B63507   0.989  10.568   4.477  1.0658  0.3712  0.4581
  476CHL1  H26C63508   0.984  10.717   4.372  2.7025  1.8815  0.3415
  476CHL1   C2763509   1.251  10.712   4.289 -0.5601 -0.8359  0.0555
  476CHL1  H27A63510   1.193  10.794   4.242  0.4698 -0.7195 -1.0524
  476CHL1  H27B63511   1.357  10.739   4.311 -1.0570  0.8800  0.5099
  476CHL1  H27C63512   1.248  10.629   4.215  0.4034 -0.3562 -0.5402
  477CHL1    C363513   2.213   7.204   5.765 -0.6509  0.6265  0.2840
  477CHL1    H363514   2.245   7.305   5.799 -2.0115  0.8413  0.9814
  477CHL1    O363515   2.162   7.140   5.879  0.4454 -0.0399 -1.1836
  477CHL1   H3'63516   2.102   7.073   5.845 -0.2254 -1.2805  2.0876
  477CHL1    C463517   2.102   7.221   5.665  0.5300 -0.4406 -0.2806
  477CHL1   H4A63518   2.034   7.133   5.665 -0.9025  0.5021 -3.5934
  477CHL1   H4B63519   2.036   7.295   5.716  3.8093  1.7715  1.0285
  477CHL1    C563520   2.150   7.277   5.538 -0.1514  0.3390  0.8326
  477CHL1    C663521   2.104   7.392   5.491 -0.5042 -0.3266  0.2390
  477CHL1    H663522   2.043   7.455   5.557 -0.0770 -0.5309  0.8342
  477CHL1    C763523   2.138   7.451   5.353 -0.3299  0.0595  0.2282
  477CHL1   H7A63524   2.046   7.485   5.303  2.1230  1.4112 -3.8495
  477CHL1   H7B63525   2.211   7.535   5.352  0.3890 -0.4360  2.6558
  477CHL1    C863526   2.210   7.343   5.263  0.3692 -0.3454 -0.2141
  477CHL1    H863527   2.131   7.275   5.226 -0.3173  0.4946 -0.3118
  477CHL1   C1463528   2.287   7.412   5.152  0.4933  0.5534  0.5743
  477CHL1   H1463529   2.377   7.467   5.185  0.2675  1.4314 -0.2237
  477CHL1   C1563530   2.199   7.502   5.060 -0.5380 -0.2601 -0.4288
  477CHL1  H15A63531   2.100   7.459   5.035 -1.1201 -0.5040  2.0412
  477CHL1  H15B63532   2.189   7.603   5.105  0.3891 -1.2785  2.3151
  477CHL1   C1663533   2.277   7.506   4.927 -0.2389  0.1154  0.5003
  477CHL1  H16A63534   2.214   7.470   4.843  1.3813 -1.6146 -0.0358
  477CHL1  H16B63535   2.321   7.607   4.914  0.0958  0.0943  1.4355
  477CHL1   C1763536   2.393   7.399   4.941 -0.5637 -0.3271 -0.0528
  477CHL1   H1763537   2.482   7.444   4.988 -0.5281 -1.3906  0.9520
  477CHL1   C1363538   2.350   7.312   5.059 -0.1415 -0.0734 -0.2364
  477CHL1   C1863539   2.239   7.211   5.003 -1.0050  0.0940  0.2613
  477CHL1  H18A63540   2.168   7.257   4.931 -3.1488  1.3804  3.0242
  477CHL1  H18B63541   2.293   7.132   4.946 -1.2425  0.9820 -1.2449
  477CHL1  H18C63542   2.169   7.154   5.069 -1.1874  0.1767  0.1419
  477CHL1   C1263543   2.463   7.236   5.142  0.0704  0.6973  0.2981
  477CHL1  H12A63544   2.518   7.156   5.087 -2.9344 -0.9364 -0.5354
  477CHL1  H12B63545   2.535   7.316   5.169 -1.8881  2.9986 -0.9249
  477CHL1   C1163546   2.393   7.167   5.256  0.2756  0.4302 -0.1151
  477CHL1  H11A63547   2.333   7.088   5.205  0.9137 -0.9676  1.2389
  477CHL1  H11B63548   2.476   7.125   5.316  0.7181  1.4813  0.0293
  477CHL1    C963549   2.311   7.263   5.348  0.1640 -0.1646 -0.1876
  477CHL1    H963550   2.384   7.335   5.393 -0.9349  1.0789 -0.3285
  477CHL1   C1063551   2.251   7.191   5.469  0.9411 -0.1664 -0.9179
  477CHL1   C1963552   2.182   7.055   5.425  0.4901  0.3939  0.1293
  477CHL1  H19A63553   2.259   6.987   5.380 -0.8818 -1.7227  0.8433
  477CHL1  H19B63554   2.139   7.006   5.515 -1.4379 -0.3665 -1.1446
  477CHL1  H19C63555   2.105   7.073   5.347  2.1516  0.6732 -1.5405
  477CHL1    C163556   2.367   7.155   5.567  0.2563 -0.2003 -0.5282
  477CHL1   H1A63557   2.425   7.074   5.517  0.0770 -0.2335 -0.6851
  477CHL1   H1B63558   2.437   7.240   5.577  0.6030 -0.1394 -2.8758
  477CHL1    C263559   2.330   7.117   5.707 -0.0105  0.0364  0.3326
  477CHL1   H2A63560   2.420   7.107   5.771 -1.3172  0.5797  2.3584
  477CHL1   H2B63561   2.297   7.011   5.710  2.0486 -0.6275  2.2926
  477CHL1   C2063562   2.428   7.339   4.806  0.1109 -0.8431 -0.1019
  477CHL1   H2063563   2.338   7.300   4.755  0.2345 -0.8584 -0.3072
  477CHL1   C2163564   2.529   7.229   4.832  0.2616 -0.2651 -0.5100
  477CHL1  H21A63565   2.595   7.218   4.742  0.5056  0.0743 -0.3757
  477CHL1  H21B63566   2.504   7.123   4.854 -0.3317 -0.0800 -0.2924
  477CHL1  H21C63567   2.603   7.254   4.911  0.8405 -1.4905 -0.6253
  477CHL1   C2263568   2.489   7.452   4.712  0.0322 -0.1775  0.8333
  477CHL1  H22A63569   2.420   7.538   4.700  0.3642  0.0147  0.2855
  477CHL1  H22B63570   2.579   7.498   4.758  1.1875 -0.7036 -0.8199
  477CHL1   C2363571   2.538   7.411   4.566 -0.8406 -0.1796 -0.6123
  477CHL1  H23A63572   2.635   7.359   4.582 -2.3954 -2.9029  0.6586
  477CHL1  H23B63573   2.464   7.342   4.521  0.5833 -1.3242 -1.2870
  477CHL1   C2463574   2.548   7.538   4.477  0.3278  0.6219  0.0457
  477CHL1  H24A63575   2.452   7.593   4.486 -1.0403 -1.7865  1.4618
  477CHL1  H24B63576   2.622   7.609   4.519 -0.4613  0.4260  1.8316
  477CHL1   C2563577   2.573   7.508   4.329 -0.1842 -0.2395 -0.8230
  477CHL1   H2563578   2.514   7.418   4.302 -2.0483  1.8325 -4.5509
  477CHL1   C2663579   2.534   7.633   4.243 -0.1851  0.0758  0.0195
  477CHL1  H26A63580   2.533   7.607   4.135  0.2932 -1.1119  0.2947
  477CHL1  H26B63581   2.432   7.669   4.271  0.1713  0.9173  0.2740
  477CHL1  H26C63582   2.605   7.718   4.251  1.0268 -0.8378 -0.6775
  477CHL1   C2763583   2.719   7.472   4.294  0.3992 -0.6763  0.2665
  477CHL1  H27A63584   2.713   7.463   4.183 -2.8032  1.2431  0.1604
  477CHL1  H27B63585   2.802   7.538   4.326  0.8221 -1.4307  0.7662
  477CHL1  H27C63586   2.731   7.374   4.345  0.9154  0.3178  2.1563
  478CHL1    C363587   9.705  11.986   5.847 -0.6291 -0.0009  0.5598
  478CHL1    H363588   9.602  11.947   5.859 -0.4239 -0.5712  0.4786
  478CHL1    O363589   9.755  12.007   5.979 -0.0157 -0.6503  0.0596
  478CHL1   H3'63590   9.725  12.095   6.004  1.3579  0.6008 -2.3355
  478CHL1    C463591   9.786  11.875   5.774 -0.3125  0.3647  0.5435
  478CHL1   H4A63592   9.890  11.910   5.757  0.0910 -1.1563 -0.2363
  478CHL1   H4B63593   9.787  11.781   5.833 -1.7826  0.9320  1.5339
  478CHL1    C563594   9.739  11.838   5.633  0.1203  0.0489  1.0528
  478CHL1    C663595   9.719  11.716   5.584  0.3607 -0.0577 -0.2165
  478CHL1    H663596   9.749  11.637   5.654 -0.7310 -0.1849  0.1216
  478CHL1    C763597   9.673  11.678   5.445 -0.0230 -0.4442  0.1943
  478CHL1   H7A63598   9.716  11.588   5.398  0.2190 -0.0616 -0.3277
  478CHL1   H7B63599   9.563  11.665   5.452  0.1250 -1.9155  0.0026
  478CHL1    C863600   9.681  11.799   5.351 -0.2667  0.1685  0.1754
  478CHL1    H863601   9.784  11.802   5.310 -0.0565 -0.2329  0.6714
  478CHL1   C1463602   9.581  11.784   5.234 -0.3479 -0.0997  0.2754
  478CHL1   H1463603   9.481  11.773   5.279 -0.3236 -0.0086  0.3526
  478CHL1   C1563604   9.594  11.656   5.152 -0.1798 -0.2718  0.2146
  478CHL1  H15A63605   9.702  11.634   5.135  0.2634  0.7210  1.5285
  478CHL1  H15B63606   9.554  11.566   5.203 -1.8899 -1.1438 -2.4629
  478CHL1   C1663607   9.520  11.675   5.022 -0.0431  0.3977  0.4846
  478CHL1  H16A63608   9.584  11.652   4.934  0.5184  1.9923  0.4472
  478CHL1  H16B63609   9.428  11.612   5.016  0.4499 -0.2754 -0.3757
  478CHL1   C1763610   9.487  11.830   5.023  0.5133  0.1992  0.4890
  478CHL1   H1763611   9.388  11.844   5.072  1.8490  1.7274  2.9648
  478CHL1   C1363612   9.582  11.897   5.128 -0.6117  0.7941 -0.0674
  478CHL1   C1863613   9.722  11.912   5.074 -0.2410 -0.8242  0.1471
  478CHL1  H18A63614   9.799  11.920   5.153  0.0269 -1.3737 -0.0512
  478CHL1  H18B63615   9.758  11.833   5.004 -1.3812  0.7357 -2.3673
  478CHL1  H18C63616   9.725  11.995   4.999 -3.3637  1.1447  1.9781
  478CHL1   C1263617   9.541  12.020   5.194  1.5185 -0.5052 -0.1974
  478CHL1  H12A63618   9.533  12.103   5.119 -0.8054 -0.1071  0.3961
  478CHL1  H12B63619   9.433  12.013   5.221  1.4342  1.5191  0.1848
  478CHL1   C1163620   9.625  12.051   5.317 -0.2038  0.0725  0.2146
  478CHL1  H11A63621   9.720  12.102   5.291  0.0132 -0.2486  0.3749
  478CHL1  H11B63622   9.578  12.142   5.360  2.3945  1.3951  0.4484
  478CHL1    C963623   9.645  11.935   5.420 -0.2258 -0.2679 -0.1170
  478CHL1    H963624   9.541  11.924   5.457 -0.2074  3.2264  1.3623
  478CHL1   C1063625   9.727  11.969   5.542  0.6378  0.2694 -0.0507
  478CHL1   C1963626   9.874  12.020   5.501  0.4522 -0.6068 -0.2997
  478CHL1  H19A63627   9.932  12.059   5.587 -1.3476  3.1626 -0.5992
  478CHL1  H19B63628   9.932  11.947   5.439  1.5327 -1.2910  1.4330
  478CHL1  H19C63629   9.862  12.112   5.439  0.1914 -1.4547 -1.5585
  478CHL1    C163630   9.659  12.087   5.621  0.4299  0.5307  0.7203
  478CHL1   H1A63631   9.687  12.175   5.559 -0.0953 -0.8908 -1.6623
  478CHL1   H1B63632   9.550  12.066   5.623  0.6304 -0.7059 -0.2573
  478CHL1    C263633   9.713  12.106   5.769  0.1478 -0.3049  0.8501
  478CHL1   H2A63634   9.656  12.187   5.820  0.1019 -0.3795  0.9180
  478CHL1   H2B63635   9.818  12.141   5.759 -0.3229  0.7130 -1.2303
  478CHL1   C2063636   9.475  11.892   4.886  0.3906 -0.2995 -0.1435
  478CHL1   H2063637   9.571  11.875   4.834 -0.9821 -0.6873 -2.7498
  478CHL1   C2163638   9.446  12.043   4.897  0.0765  0.3189  0.3132
  478CHL1  H21A63639   9.357  12.044   4.964  1.9101  2.7588  2.9479
  478CHL1  H21B63640   9.429  12.075   4.792  0.2594 -1.1174 -0.1725
  478CHL1  H21C63641   9.536  12.097   4.935  2.0961 -1.6506 -1.3700
  478CHL1   C2263642   9.364  11.821   4.797 -0.8284  0.3053  0.6142
  478CHL1  H22A63643   9.367  11.711   4.810  0.5595  0.2530  0.0321
  478CHL1  H22B63644   9.264  11.864   4.817 -0.7721  1.6498 -1.5853
  478CHL1   C2363645   9.377  11.840   4.650 -0.5105 -0.9416  0.7615
  478CHL1  H23A63646   9.378  11.947   4.622  2.9150 -0.7509  1.2110
  478CHL1  H23B63647   9.465  11.793   4.601 -1.5941 -1.4983 -0.7305
  478CHL1   C2463648   9.248  11.795   4.568 -0.2936 -0.3449 -0.1203
  478CHL1  H24A63649   9.219  11.699   4.616 -0.9727  1.0518  2.4380
  478CHL1  H24B63650   9.154  11.853   4.578 -0.6920 -0.5339 -2.2474
  478CHL1   C2563651   9.271  11.782   4.418  0.3579 -0.0273  0.5885
  478CHL1   H2563652   9.362  11.722   4.401 -0.5584 -1.2415 -0.1631
  478CHL1   C2663653   9.155  11.715   4.350 -0.0339 -0.0178  0.9614
  478CHL1  H26A63654   9.065  11.781   4.348  0.7246  1.0275  0.7731
  478CHL1  H26B63655   9.166  11.684   4.244 -2.7805 -0.1486  0.6236
  478CHL1  H26C63656   9.120  11.619   4.395  2.8881 -0.2827  2.9808
  478CHL1   C2763657   9.289  11.924   4.364  0.3585 -0.2288 -0.1520
  478CHL1  H27A63658   9.322  11.920   4.258 -0.3503 -2.1716 -0.3393
  478CHL1  H27B63659   9.192  11.978   4.362 -0.4872 -1.7171 -0.9796
  478CHL1  H27C63660   9.361  11.980   4.427 -0.9144  1.0029  0.2527
  479CHL1    C363661  10.489   2.049   5.860 -0.2477  0.0298  0.3883
  479CHL1    H363662  10.476   2.148   5.812 -0.4484 -0.5247 -0.7490
  479CHL1    O363663  10.524   2.073   5.992  0.2180  0.0323  0.0609
  479CHL1   H3'63664  10.557   1.986   6.014 -2.2539 -0.8318  0.7523
  479CHL1    C463665  10.366   1.965   5.848 -0.0331  0.6390  1.2043
  479CHL1   H4A63666  10.392   1.873   5.904 -0.1125  1.2391  2.2480
  479CHL1   H4B63667  10.278   2.017   5.893 -2.6695 -0.5580 -2.1399
  479CHL1    C563668  10.328   1.935   5.701 -0.1339  0.0466 -0.2143
  479CHL1    C663669  10.216   1.978   5.657  0.4163 -0.1861  0.1158
  479CHL1    H663670  10.149   2.043   5.715  0.8827  0.7591 -0.3910
  479CHL1    C763671  10.169   1.954   5.516 -0.4672  0.3832  0.1102
  479CHL1   H7A63672  10.063   1.920   5.516 -1.1149  2.2795  0.7291
  479CHL1   H7B63673  10.165   2.052   5.465 -3.2236 -0.3693 -1.3024
  479CHL1    C863674  10.254   1.855   5.433 -0.5081 -0.1273  0.2961
  479CHL1    H863675  10.225   1.752   5.463  1.2626 -0.9809 -0.7657
  479CHL1   C1463676  10.228   1.856   5.280  0.4720  0.1104 -0.2276
  479CHL1   H1463677  10.245   1.961   5.246 -0.6248 -0.1973 -1.8361
  479CHL1   C1563678  10.085   1.827   5.228 -0.8484  0.0496  0.5705
  479CHL1  H15A63679  10.039   1.734   5.268  0.4783 -2.1536 -2.5973
  479CHL1  H15B63680  10.019   1.911   5.259  0.3131  1.2285 -0.0844
  479CHL1   C1663681  10.118   1.823   5.073 -0.0621 -0.0406 -0.1370
  479CHL1  H16A63682  10.082   1.729   5.027  2.2214 -1.0977  0.0864
  479CHL1  H16B63683  10.082   1.912   5.019 -0.9870 -0.0088  0.5056
  479CHL1   C1763684  10.275   1.794   5.063 -0.1550  0.0883  0.0283
  479CHL1   H1763685  10.323   1.891   5.038 -0.3405  0.2051  0.1193
  479CHL1   C1363686  10.316   1.759   5.204 -0.0919  0.8226 -0.3199
  479CHL1   C1863687  10.274   1.609   5.223 -0.0336  0.1890  0.6696
  479CHL1  H18A63688  10.172   1.570   5.200 -0.8209  1.7964  1.2698
  479CHL1  H18B63689  10.334   1.542   5.157 -2.6620 -0.7688 -0.9482
  479CHL1  H18C63690  10.301   1.585   5.328 -0.1793 -1.8098  0.2972
  479CHL1   C1263691  10.464   1.788   5.226  0.5062 -0.2731 -0.3164
  479CHL1  H12A63692  10.527   1.720   5.166  2.1834  1.1788 -0.2788
  479CHL1  H12B63693  10.479   1.894   5.196 -1.0562  0.4649  1.3131
  479CHL1   C1163694  10.503   1.790   5.369 -0.0968  0.3786  0.1529
  479CHL1  H11A63695  10.485   1.684   5.396  0.9414 -0.3937 -1.9805
  479CHL1  H11B63696  10.611   1.810   5.384 -0.4974  1.8474  1.3835
  479CHL1    C963697  10.403   1.874   5.462  0.1732 -0.6505  0.3949
  479CHL1    H963698  10.423   1.979   5.431 -0.6392 -0.5346  0.2526
  479CHL1   C1063699  10.441   1.874   5.618 -0.0115 -0.1719 -0.5806
  479CHL1   C1963700  10.480   1.729   5.658 -0.2601 -0.5203  0.6604
  479CHL1  H19A63701  10.578   1.694   5.620  0.2523 -0.1373  1.5980
  479CHL1  H19B63702  10.500   1.714   5.767 -0.5698  1.6363  1.0596
  479CHL1  H19C63703  10.409   1.650   5.626  0.4508 -0.2200 -1.8580
  479CHL1    C163704  10.569   1.960   5.640 -0.1954  0.2902  0.1645
  479CHL1   H1A63705  10.653   1.922   5.578  0.3928  2.2524 -0.3244
  479CHL1   H1B63706  10.551   2.060   5.595  0.1992 -0.3654 -1.5672
  479CHL1    C263707  10.613   1.980   5.783  0.5797  0.6117 -0.4566
  479CHL1   H2A63708  10.702   2.042   5.808  1.5531 -0.7665 -0.3464
  479CHL1   H2B63709  10.642   1.886   5.834 -0.6376  1.0894  1.1718
  479CHL1   C2063710  10.306   1.708   4.942  0.5361  0.4064 -0.4826
  479CHL1   H2063711  10.254   1.611   4.960  0.6503  0.4689  0.2309
  479CHL1   C2163712  10.453   1.689   4.915  0.2502  0.2741 -0.3599
  479CHL1  H21A63713  10.503   1.633   4.997 -0.4134 -1.2079 -0.9425
  479CHL1  H21B63714  10.506   1.784   4.892  0.8120  0.0516 -0.0134
  479CHL1  H21C63715  10.474   1.628   4.825  1.5484 -0.3557  0.3376
  479CHL1   C2263716  10.256   1.773   4.809 -0.2527  0.4361 -0.3504
  479CHL1  H22A63717  10.181   1.852   4.828 -0.6959  0.3462 -1.6442
  479CHL1  H22B63718  10.330   1.836   4.756 -1.9951  3.8322  0.9131
  479CHL1   C2363719  10.206   1.671   4.707 -0.0543  0.0650  0.4932
  479CHL1  H23A63720  10.296   1.620   4.666  0.0459  0.3808  0.3193
  479CHL1  H23B63721  10.141   1.591   4.748  3.5943 -3.1927  0.4613
  479CHL1   C2463722  10.131   1.736   4.597  0.8203  0.2329  0.9794
  479CHL1  H24A63723  10.034   1.777   4.633 -0.6491  0.3528 -2.6537
  479CHL1  H24B63724  10.192   1.821   4.560 -0.6577  1.8941  2.1802
  479CHL1   C2563725  10.098   1.648   4.472  0.0789  0.0831 -0.6572
  479CHL1   H2563726  10.028   1.707   4.409 -0.3908  0.5516  0.2854
  479CHL1   C2663727  10.217   1.614   4.390  0.2476  0.7964  0.2748
  479CHL1  H26A63728  10.245   1.705   4.334  1.1226  0.4564  0.1427
  479CHL1  H26B63729  10.305   1.583   4.450 -0.8186 -1.3980  0.8166
  479CHL1  H26C63730  10.203   1.534   4.315 -1.8013  1.8285 -0.5199
  479CHL1   C2763731  10.023   1.518   4.510  0.2164 -0.3483  0.5927
  479CHL1  H27A63732  10.095   1.463   4.575 -0.9489 -2.6883  0.0019
  479CHL1  H27B63733   9.931   1.536   4.570 -0.3961 -1.0124 -0.1342
  479CHL1  H27C63734  10.004   1.450   4.424 -1.4666 -0.2307  0.8429
  480CHL1    C363735   0.395   9.990   5.650 -0.6454 -0.2994 -0.3784
  480CHL1    H363736   0.486  10.045   5.618 -0.2784 -0.8523 -0.3117
  480CHL1    O363737   0.384   9.976   5.793  0.6343  0.4951  0.3881
  480CHL1   H3'63738   0.365  10.065   5.825 -0.3359  0.6175 -0.4766
  480CHL1    C463739   0.270  10.061   5.596 -0.3756  0.1803 -0.5292
  480CHL1   H4A63740   0.181  10.003   5.629  0.1225 -0.1021  0.3364
  480CHL1   H4B63741   0.269  10.167   5.629 -0.2663 -0.0707  0.2925
  480CHL1    C563742   0.260  10.064   5.445  0.4068 -0.1501 -0.4075
  480CHL1    C663743   0.253  10.184   5.386  0.1745 -0.6240  0.2707
  480CHL1    H663744   0.237  10.269   5.454  0.5235 -1.7249  1.7809
  480CHL1    C763745   0.246  10.205   5.242  0.2836  0.0090 -0.5137
  480CHL1   H7A63746   0.153  10.260   5.215 -0.3614 -0.4839  0.6406
  480CHL1   H7B63747   0.336  10.251   5.196  0.4877  0.1278 -0.0002
  480CHL1    C863748   0.230  10.064   5.160  0.6257 -0.0577 -0.0064
  480CHL1    H863749   0.128  10.023   5.172 -0.4741  1.4184 -3.2175
  480CHL1   C1463750   0.261  10.095   5.012 -0.6916  0.3343 -0.3537
  480CHL1   H1463751   0.366  10.130   4.999 -0.7163  1.2133  1.5654
  480CHL1   C1563752   0.181  10.209   4.942 -0.1817  0.0047 -0.1536
  480CHL1  H15A63753   0.078  10.196   4.983 -0.4581  1.2076 -0.4367
  480CHL1  H15B63754   0.214  10.312   4.967 -0.7043 -0.1339  1.2094
  480CHL1   C1663755   0.184  10.171   4.789  0.0348  0.1412  0.4640
  480CHL1  H16A63756   0.081  10.170   4.747 -0.6017  2.9174  1.6593
  480CHL1  H16B63757   0.245  10.237   4.724  0.9515 -0.9846  0.1695
  480CHL1   C1763758   0.254  10.032   4.790  0.5128 -0.9415 -0.0150
  480CHL1   H1763759   0.363  10.047   4.774  0.6227 -0.9162  0.7194
  480CHL1   C1363760   0.238   9.969   4.931 -0.3517  0.2835  0.4861
  480CHL1   C1863761   0.092   9.912   4.942 -0.0760  0.0789  0.3590
  480CHL1  H18A63762   0.084   9.863   5.042  1.0587 -3.2297 -1.0452
  480CHL1  H18B63763   0.012   9.990   4.938 -0.1045  0.1425  1.6803
  480CHL1  H18C63764   0.057   9.838   4.868  2.0759 -0.4450 -0.1958
  480CHL1   C1263765   0.340   9.859   4.975  0.2962  0.2151  0.1300
  480CHL1  H12A63766   0.317   9.754   4.946  1.4330 -0.0085 -0.0272
  480CHL1  H12B63767   0.446   9.875   4.943  0.3329 -1.0570 -0.4563
  480CHL1   C1163768   0.340   9.834   5.130 -0.1647 -0.2450 -0.8570
  480CHL1  H11A63769   0.267   9.758   5.163 -0.7834  1.3899  1.7586
  480CHL1  H11B63770   0.443   9.797   5.153  0.3869  1.9265  0.4518
  480CHL1    C963771   0.323   9.958   5.222  0.2274 -0.2276 -0.0421
  480CHL1    H963772   0.419  10.014   5.230 -1.3775  2.5691  1.0515
  480CHL1   C1063773   0.283   9.930   5.369 -0.0110 -0.1770  0.0429
  480CHL1   C1963774   0.152   9.847   5.383 -0.1932 -0.0535  0.0568
  480CHL1  H19A63775   0.134   9.810   5.486  0.9342 -0.8497 -0.0069
  480CHL1  H19B63776   0.065   9.913   5.365 -0.0314 -0.1490 -1.1403
  480CHL1  H19C63777   0.152   9.756   5.319 -0.2627 -1.1800  1.5925
  480CHL1    C163778   0.397   9.855   5.442 -0.2561 -0.3020  0.1535
  480CHL1   H1A63779   0.397   9.751   5.402  1.9408  0.1107 -1.1208
  480CHL1   H1B63780   0.492   9.903   5.410 -1.4064  0.4905 -2.3944
  480CHL1    C263781   0.398   9.845   5.592 -0.0035 -0.3583 -0.1748
  480CHL1   H2A63782   0.483   9.791   5.639 -0.5989 -3.4329 -2.3121
  480CHL1   H2B63783   0.307   9.792   5.628  0.5740  0.2312  2.3681
  480CHL1   C2063784   0.219   9.949   4.665  0.1375  0.1927  0.2091
  480CHL1   H2063785   0.109   9.932   4.664  0.2242 -0.3956 -0.0882
  480CHL1   C2163786   0.285   9.805   4.673 -0.0816 -0.6864 -0.3681
  480CHL1  H21A63787   0.252   9.742   4.758  4.2260  0.0657  2.1854
  480CHL1  H21B63788   0.391   9.822   4.702 -0.5112 -0.5221  1.2073
  480CHL1  H21C63789   0.285   9.760   4.571 -1.1512  0.3844 -0.8554
  480CHL1   C2263790   0.251  10.023   4.531 -0.2051 -0.3335  0.1088
  480CHL1  H22A63791   0.193  10.117   4.527  0.9767  0.4773  1.2693
  480CHL1  H22B63792   0.360  10.042   4.530 -0.3541  0.7498  1.4287
  480CHL1   C2363793   0.225   9.954   4.399 -0.2007  0.4086  0.3525
  480CHL1  H23A63794   0.233  10.027   4.315 -0.0682 -1.5818 -1.4652
  480CHL1  H23B63795   0.293   9.868   4.378 -0.8675  0.4169 -2.1577
  480CHL1   C2463796   0.085   9.879   4.383 -0.3592  0.0336  0.4946
  480CHL1  H24A63797   0.114   9.778   4.419  1.4045 -0.7394 -2.7560
  480CHL1  H24B63798   0.013   9.939   4.444  1.2409  0.2458  2.2937
  480CHL1   C2563799   0.034   9.868   4.240 -0.1068  0.0137 -0.8199
  480CHL1   H2563800   0.026   9.972   4.204  1.3542 -0.6583 -3.3273
  480CHL1   C2663801   0.119   9.794   4.139  0.2572  0.3121  0.6057
  480CHL1  H26A63802   0.081   9.799   4.035  4.5821 -0.2956 -1.1767
  480CHL1  H26B63803   0.222   9.834   4.145  0.8381 -1.2895  2.0653
  480CHL1  H26C63804   0.124   9.687   4.165  0.6221  0.0558 -0.4923
  480CHL1   C2763805  -0.108   9.804   4.239  0.1471 -0.5483  0.6428
  480CHL1  H27A63806  -0.098   9.702   4.284 -1.0379 -0.7921  0.3890
  480CHL1  H27B63807  -0.181   9.860   4.302  0.0855  0.8094 -0.5952
  480CHL1  H27C63808  -0.145   9.791   4.135 -0.8203  0.9735  0.7714
  481CHL1    C363809   1.852   1.923   5.753 -0.0152  0.3613  0.3947
  481CHL1    H363810   1.943   1.858   5.749 -0.4521 -0.2503  0.2057
  481CHL1    O363811   1.840   1.981   5.880 -0.5454  0.3163  0.2397
  481CHL1   H3'63812   1.750   2.013   5.877 -0.9847 -0.8735  0.2568
  481CHL1    C463813   1.863   2.036   5.651 -0.0182  0.5242  0.3431
  481CHL1   H4A63814   1.773   2.099   5.664 -4.4742 -4.3706 -2.5682
  481CHL1   H4B63815   1.958   2.090   5.674  0.5648  0.1797 -1.1317
  481CHL1    C563816   1.863   2.003   5.498  0.1920  0.3096 -0.6259
  481CHL1    C663817   1.962   2.041   5.418 -0.1412 -0.0049 -0.6613
  481CHL1    H663818   2.043   2.095   5.470 -1.0230  0.6541  0.0782
  481CHL1    C763819   1.975   2.007   5.277 -0.0597 -0.1282  0.1350
  481CHL1   H7A63820   1.989   2.101   5.219 -0.7935 -0.1755 -0.1292
  481CHL1   H7B63821   2.061   1.938   5.266 -0.3464 -0.2695 -1.5982
  481CHL1    C863822   1.840   1.938   5.228 -0.0627  0.0688 -0.0446
  481CHL1    H863823   1.763   2.016   5.212 -0.7901 -1.1168 -2.9801
  481CHL1   C1463824   1.867   1.868   5.097 -0.1130  0.4904  0.1109
  481CHL1   H1463825   1.937   1.786   5.125 -2.5866 -1.4863  0.8711
  481CHL1   C1563826   1.946   1.941   4.986  0.6316  0.0160 -0.0568
  481CHL1  H15A63827   1.912   2.047   4.979  2.3152  0.7451  1.7922
  481CHL1  H15B63828   2.054   1.941   5.013  1.1899  3.5478 -1.6623
  481CHL1   C1663829   1.919   1.856   4.860 -0.2880 -0.8961 -0.3299
  481CHL1  H16A63830   1.868   1.910   4.777 -1.1905 -0.5657  0.4154
  481CHL1  H16B63831   2.019   1.829   4.821  0.3289  0.9894 -0.1384
  481CHL1   C1763832   1.829   1.739   4.898 -0.7803 -0.8749 -0.3754
  481CHL1   H1763833   1.899   1.657   4.923 -1.4158 -1.5493 -0.7639
  481CHL1   C1363834   1.756   1.795   5.023 -0.3238  0.1696 -0.6784
  481CHL1   C1863835   1.635   1.893   4.995 -0.9448 -0.2840 -0.1962
  481CHL1  H18A63836   1.672   1.973   4.927  1.8765 -2.4134 -1.3734
  481CHL1  H18B63837   1.556   1.836   4.942 -2.0805 -1.4921  2.5858
  481CHL1  H18C63838   1.588   1.937   5.086 -0.3081 -0.6044  0.3000
  481CHL1   C1263839   1.715   1.687   5.131  0.2888 -0.1164 -0.3873
  481CHL1  H12A63840   1.624   1.639   5.089 -1.1184  3.6181 -2.0793
  481CHL1  H12B63841   1.795   1.610   5.139  1.5588  1.0015 -1.6880
  481CHL1   C1163842   1.671   1.750   5.271 -0.6325 -0.5046  0.2444
  481CHL1  H11A63843   1.587   1.816   5.241  0.6149  0.4978 -1.2891
  481CHL1  H11B63844   1.641   1.662   5.331 -0.8159 -0.4314  0.2596
  481CHL1    C963845   1.787   1.836   5.327  0.3014  0.0610 -0.0805
  481CHL1    H963846   1.878   1.773   5.343  0.2082  0.2769  1.3933
  481CHL1   C1063847   1.753   1.904   5.464  0.4313  0.2799  0.0558
  481CHL1   C1963848   1.614   1.973   5.452 -1.2363  0.7519 -0.2082
  481CHL1  H19A63849   1.614   2.059   5.381  1.2562  0.7045 -0.3473
  481CHL1  H19B63850   1.536   1.897   5.431 -0.5807 -0.5164  1.7076
  481CHL1  H19C63851   1.608   2.017   5.554  1.4611 -0.9219  0.7871
  481CHL1    C163852   1.741   1.791   5.569  0.0021  0.1706 -0.6887
  481CHL1   H1A63853   1.659   1.719   5.550  0.8954 -1.1126  0.1731
  481CHL1   H1B63854   1.835   1.732   5.569  0.4010  0.7854 -1.3553
  481CHL1    C263855   1.727   1.844   5.717  0.2949 -0.3503  0.7378
  481CHL1   H2A63856   1.729   1.753   5.780  1.4243  0.2814  1.6513
  481CHL1   H2B63857   1.632   1.900   5.725 -0.9080 -1.8268 -1.9973
  481CHL1   C2063858   1.740   1.688   4.783 -0.1750  0.5545  0.3435
  481CHL1   H2063859   1.658   1.763   4.778 -0.1872  0.5136 -0.0813
  481CHL1   C2163860   1.689   1.550   4.831 -0.0213  0.5115 -0.4241
  481CHL1  H21A63861   1.609   1.572   4.904  0.3730 -2.2780  0.9795
  481CHL1  H21B63862   1.768   1.490   4.880 -1.7571 -0.3731  1.4116
  481CHL1  H21C63863   1.661   1.491   4.741  1.5384 -0.4666 -0.2957
  481CHL1   C2263864   1.807   1.682   4.641  0.2482 -0.2452  0.2860
  481CHL1  H22A63865   1.730   1.629   4.582 -0.5850 -1.8051  2.6278
  481CHL1  H22B63866   1.822   1.784   4.599 -0.0868 -0.3307 -0.0363
  481CHL1   C2363867   1.944   1.613   4.639  0.3075 -0.4546  0.1909
  481CHL1  H23A63868   2.020   1.682   4.683 -1.4769  1.1190  0.9551
  481CHL1  H23B63869   1.947   1.532   4.715  2.0184  0.8892  1.6538
  481CHL1   C2463870   1.991   1.571   4.501 -0.3028 -0.5171 -0.0546
  481CHL1  H24A63871   2.071   1.495   4.505  0.3060  0.0311 -1.1428
  481CHL1  H24B63872   1.901   1.513   4.470 -0.7201 -0.6513  1.3728
  481CHL1   C2563873   2.048   1.676   4.403  0.4750 -0.0303 -0.1229
  481CHL1   H2563874   1.972   1.756   4.392 -0.0836 -0.3134  1.5300
  481CHL1   C2663875   2.171   1.752   4.445 -0.7850  0.1087 -0.3681
  481CHL1  H26A63876   2.157   1.828   4.526  2.8060  0.6035 -0.0400
  481CHL1  H26B63877   2.244   1.689   4.502 -1.9468  0.2354  1.3521
  481CHL1  H26C63878   2.219   1.805   4.360 -2.3740  1.7520 -0.3068
  481CHL1   C2763879   2.061   1.616   4.263  0.0890 -0.0666 -0.2105
  481CHL1  H27A63880   2.164   1.612   4.223  0.3042 -0.9392  0.3964
  481CHL1  H27B63881   2.027   1.511   4.279  0.8361 -0.3481 -0.4521
  481CHL1  H27C63882   1.989   1.663   4.193 -0.9120 -1.6919 -0.3327
  482CHL1    C363883   3.199   8.853   2.542 -0.2707  0.4304  0.2175
  482CHL1    H363884   3.297   8.804   2.561 -0.1451 -1.5368 -4.1012
  482CHL1    O363885   3.199   8.893   2.406 -0.1214 -0.7171  0.1960
  482CHL1   H3'63886   3.112   8.875   2.368  0.3979  0.4534 -1.6579
  482CHL1    C463887   3.092   8.753   2.574  0.4001 -0.3479  0.8189
  482CHL1   H4A63888   2.997   8.786   2.527  0.5576 -2.5671 -1.2363
  482CHL1   H4B63889   3.111   8.661   2.515 -2.2641  0.0715 -0.8570
  482CHL1    C563890   3.076   8.731   2.722 -0.6814  0.2609  0.4329
  482CHL1    C663891   3.085   8.602   2.768  0.6337  0.5517 -0.0075
  482CHL1    H663892   3.099   8.520   2.696 -2.6178 -1.1439  1.0658
  482CHL1    C763893   3.070   8.559   2.912  0.0252  0.6125  1.1030
  482CHL1   H7A63894   3.007   8.469   2.926  0.3941  0.2445  0.4387
  482CHL1   H7B63895   3.170   8.532   2.952  0.2733 -0.7941 -0.3511
  482CHL1    C863896   2.999   8.677   2.986  0.5710  0.4833 -0.2285
  482CHL1    H863897   2.890   8.681   2.965 -0.1570 -0.7042  2.8753
  482CHL1   C1463898   3.000   8.640   3.132 -0.3096  0.1488  0.2554
  482CHL1   H1463899   3.105   8.619   3.161 -1.1379 -2.4725  1.6734
  482CHL1   C1563900   2.923   8.512   3.187 -0.3046  0.9518  0.0997
  482CHL1  H15A63901   2.822   8.507   3.143  0.1206 -1.0302 -0.7676
  482CHL1  H15B63902   2.982   8.420   3.167 -0.7621 -0.1677  3.2947
  482CHL1   C1663903   2.917   8.538   3.335  0.8948 -0.6526  0.9164
  482CHL1  H16A63904   2.814   8.533   3.376  0.7213  0.1523  0.5877
  482CHL1  H16B63905   2.979   8.463   3.389 -1.2528 -4.1312 -1.0730
  482CHL1   C1763906   2.966   8.683   3.358  0.0234 -0.1529 -0.0476
  482CHL1   H1763907   3.075   8.684   3.377  0.0107  1.3455  0.0574
  482CHL1   C1363908   2.951   8.755   3.224 -0.2999  0.3805  0.5427
  482CHL1   C1863909   2.803   8.784   3.191  0.0266 -0.7313  0.6286
  482CHL1  H18A63910   2.793   8.808   3.083  1.8333 -3.8023 -0.3211
  482CHL1  H18B63911   2.734   8.700   3.210 -1.3856  0.3988  0.7089
  482CHL1  H18C63912   2.770   8.875   3.246  0.2154  1.0298 -1.9952
  482CHL1   C1263913   3.041   8.873   3.206 -0.6433 -0.5680 -0.3136
  482CHL1  H12A63914   3.007   8.959   3.267 -0.0364  0.3499 -1.2420
  482CHL1  H12B63915   3.145   8.845   3.233  0.6921  2.2256 -2.1098
  482CHL1   C1163916   3.046   8.928   3.063  0.5101  0.0052  0.2666
  482CHL1  H11A63917   2.961   8.998   3.047  0.9121  0.7969  1.4259
  482CHL1  H11B63918   3.129   9.001   3.058  0.8016 -0.3672 -0.5583
  482CHL1    C963919   3.069   8.813   2.957 -0.2218 -0.1634  0.1693
  482CHL1    H963920   3.177   8.790   2.970  0.6575  3.1273 -0.4667
  482CHL1   C1063921   3.062   8.861   2.813 -0.2364  0.1638  0.1925
  482CHL1   C1963922   2.922   8.926   2.787  0.6602  0.0707 -0.6816
  482CHL1  H19A63923   2.840   8.861   2.823 -0.0348  0.8259 -0.8614
  482CHL1  H19B63924   2.909   9.024   2.837  0.0554 -0.3761  0.0716
  482CHL1  H19C63925   2.908   8.951   2.679  0.0669  3.1553  0.0168
  482CHL1    C163926   3.178   8.960   2.771  0.9623  0.5462  0.2147
  482CHL1   H1A63927   3.143   9.056   2.815 -0.1699  0.2182  0.0580
  482CHL1   H1B63928   3.274   8.927   2.815 -0.5346 -1.9832  1.8004
  482CHL1    C263929   3.191   8.980   2.621 -0.5433  0.2026 -0.2502
  482CHL1   H2A63930   3.286   9.034   2.598  1.2388 -2.2589  0.9530
  482CHL1   H2B63931   3.106   9.043   2.585 -2.0046  0.2580  3.0000
  482CHL1   C2063932   2.899   8.744   3.484 -0.0662  0.6185  0.2912
  482CHL1   H2063933   2.789   8.733   3.477  0.0642 -0.2220 -0.7321
  482CHL1   C2163934   2.919   8.901   3.495 -0.7366 -0.3336  0.1423
  482CHL1  H21A63935   3.028   8.923   3.497 -0.7653  0.0688 -1.4693
  482CHL1  H21B63936   2.870   8.939   3.587 -1.9631 -1.0991 -0.1707
  482CHL1  H21C63937   2.859   8.947   3.415  0.5725  0.0449 -0.6550
  482CHL1   C2263938   2.943   8.671   3.617 -0.2947 -0.8316 -0.1462
  482CHL1  H22A63939   2.948   8.561   3.604  1.2761 -0.7282 -0.5187
  482CHL1  H22B63940   3.050   8.700   3.625 -0.0826 -2.0982  2.5106
  482CHL1   C2363941   2.872   8.696   3.745  0.4630  0.0658  0.2665
  482CHL1  H23A63942   2.864   8.802   3.776 -1.4286 -0.3508  1.3050
  482CHL1  H23B63943   2.768   8.667   3.720  0.5435  0.1264 -0.1561
  482CHL1   C2463944   2.918   8.600   3.856 -0.7810  1.0624 -0.8063
  482CHL1  H24A63945   2.911   8.496   3.818  1.2904  0.2273  0.8405
  482CHL1  H24B63946   3.023   8.629   3.882 -1.0336  3.0024 -1.7732
  482CHL1   C2563947   2.840   8.602   3.987 -0.3064  0.5185 -0.2443
  482CHL1   H2563948   2.737   8.579   3.954 -0.9585  2.0026  0.6221
  482CHL1   C2663949   2.881   8.491   4.075 -0.4433  0.0190 -1.0518
  482CHL1  H26A63950   2.811   8.484   4.161 -0.8709  0.2946 -1.3749
  482CHL1  H26B63951   2.886   8.392   4.024 -2.4481 -0.8253  0.2694
  482CHL1  H26C63952   2.974   8.531   4.122 -1.2529  0.9619 -0.2016
  482CHL1   C2763953   2.854   8.742   4.049 -0.3753 -0.2905 -0.1014
  482CHL1  H27A63954   2.829   8.828   3.982  1.6594  0.8967  0.5920
  482CHL1  H27B63955   2.781   8.747   4.133 -1.1934  0.5529 -0.8296
  482CHL1  H27C63956   2.960   8.744   4.080 -0.6905 -0.7981  1.0435
  483CHL1    C363957  11.024   0.042   2.352  0.1935 -0.1988 -0.1374
  483CHL1    H363958  10.913   0.040   2.359  0.1479  0.9865 -0.3375
  483CHL1    O363959  11.063   0.111   2.238 -1.0175 -0.3345 -0.0102
  483CHL1   H3'63960  11.063   0.047   2.167 -2.7087 -0.2660 -0.1289
  483CHL1    C463961  11.070   0.132   2.469 -0.9162  0.0622 -0.1357
  483CHL1   H4A63962  11.178   0.150   2.457 -1.1619  2.7582  1.1202
  483CHL1   H4B63963  11.023   0.231   2.449  1.2262  1.2684  0.5914
  483CHL1    C563964  11.045   0.077   2.609 -1.3959 -0.3741  0.1316
  483CHL1    C663965  10.969   0.150   2.692  0.6215  0.4224  0.9220
  483CHL1    H663966  10.934   0.250   2.666  0.0090 -0.1185 -0.4355
  483CHL1    C763967  10.914   0.098   2.820  0.4609  0.1643 -0.0563
  483CHL1   H7A63968  10.910   0.178   2.897 -0.9855  1.1398 -1.0923
  483CHL1   H7B63969  10.808   0.069   2.801  0.8428 -0.0559 -2.1142
  483CHL1    C863970  10.991  -0.032   2.857 -0.3005 -0.3314  0.0350
  483CHL1    H863971  11.089   0.009   2.890 -0.3656  0.0380 -0.2262
  483CHL1   C1463972  10.922  -0.097   2.972 -0.3346 -0.1572 -0.2091
  483CHL1   H1463973  10.838  -0.154   2.929 -0.2707  0.2109 -0.8421
  483CHL1   C1563974  10.864  -0.005   3.087 -0.3626  1.1454  0.3695
  483CHL1  H15A63975  10.935   0.073   3.122  1.4597  2.4450 -5.1480
  483CHL1  H15B63976  10.777   0.057   3.057  0.3768  1.9582 -0.1625
  483CHL1   C1663977  10.851  -0.114   3.196  0.2345 -0.3824 -0.4393
  483CHL1  H16A63978  10.899  -0.075   3.289 -1.8301  0.6878  0.2641
  483CHL1  H16B63979  10.741  -0.118   3.211 -0.2432 -0.1874 -3.3485
  483CHL1   C1763980  10.913  -0.249   3.155 -0.4533 -0.0378  0.0671
  483CHL1   H1763981  10.832  -0.310   3.110 -0.6903  0.0742  0.3403
  483CHL1   C1363982  11.004  -0.209   3.040 -0.1926 -0.2934  0.2381
  483CHL1   C1863983  11.133  -0.147   3.099  0.0780  0.4130 -0.7007
  483CHL1  H18A63984  11.199  -0.116   3.015 -0.5146 -0.6613 -1.5936
  483CHL1  H18B63985  11.117  -0.066   3.173 -0.3503 -0.0386 -0.2928
  483CHL1  H18C63986  11.188  -0.233   3.143  1.4876  1.5956 -0.0629
  483CHL1   C1263987  11.032  -0.314   2.933 -0.2364 -0.1524  0.0120
  483CHL1  H12A63988  11.107  -0.383   2.977  0.8109  2.0344  1.8296
  483CHL1  H12B63989  10.932  -0.358   2.913  0.5087 -1.0287 -2.1404
  483CHL1   C1163990  11.092  -0.251   2.808  0.2880 -0.3674 -0.0814
  483CHL1  H11A63991  11.194  -0.223   2.842 -0.6706  3.0229  0.4297
  483CHL1  H11B63992  11.102  -0.332   2.734  2.9603 -2.0448  1.9468
  483CHL1    C963993  11.016  -0.131   2.748 -0.5005 -0.4297 -0.7780
  483CHL1    H963994  10.920  -0.177   2.716 -1.0201  1.4070 -2.0248
  483CHL1   C1063995  11.083  -0.070   2.628 -0.5967 -0.0690  0.3000
  483CHL1   C1963996  11.241  -0.085   2.648  0.5806 -0.0075 -0.4078
  483CHL1  H19A63997  11.269  -0.030   2.741  0.1316 -0.1256 -0.2007
  483CHL1  H19B63998  11.272  -0.192   2.655 -0.8362 -0.3581  1.0680
  483CHL1  H19C63999  11.289  -0.030   2.564 -2.7658  2.2648 -1.0270
  483CHL1    C164000  11.036  -0.156   2.502 -0.0936 -0.0082  0.8112
  483CHL1   H1A64001  11.082  -0.254   2.524  0.2908  0.0278  0.2057
  483CHL1   H1B64002  10.928  -0.173   2.518  0.0096 -1.1494  0.3429
  483CHL1    C264003  11.076  -0.101   2.364 -0.7564  0.7908  0.7073
  483CHL1   H2A64004  11.028  -0.173   2.295 -1.4198  0.0452  1.9079
  483CHL1   H2B64005  11.184  -0.105   2.338 -1.0013  2.6463 -0.8526
  483CHL1   C2064006  10.966  -0.318   3.276  0.4296 -0.0871  0.1714
  483CHL1   H2064007  11.048  -0.254   3.314  0.9491 -0.2979 -0.5814
  483CHL1   C2164008  11.028  -0.447   3.235 -0.5512 -0.2246  0.2318
  483CHL1  H21A64009  10.970  -0.486   3.149  0.2246 -1.4734  0.2440
  483CHL1  H21B64010  11.043  -0.532   3.305 -0.2589  0.4541  1.0110
  483CHL1  H21C64011  11.127  -0.426   3.189 -2.1167  1.6653 -2.5697
  483CHL1   C2264012  10.862  -0.346   3.389  0.2425 -0.4749  0.6569
  483CHL1  H22A64013  10.798  -0.255   3.392  0.9787  0.4434 -3.9071
  483CHL1  H22B64014  10.795  -0.428   3.357 -0.8976  0.9942 -0.9814
  483CHL1   C2364015  10.922  -0.367   3.528  0.3300 -0.0563 -0.5454
  483CHL1  H23A64016  11.015  -0.427   3.522 -0.7981 -2.0538  0.6198
  483CHL1  H23B64017  10.955  -0.267   3.561  2.9934 -0.5989 -1.3444
  483CHL1   C2464018  10.814  -0.436   3.622 -0.1276  0.4415 -0.5276
  483CHL1  H24A64019  10.859  -0.443   3.724 -1.2325 -1.0352 -0.1072
  483CHL1  H24B64020  10.719  -0.378   3.618 -0.0926  0.6310  0.9574
  483CHL1   C2564021  10.786  -0.582   3.579  0.3705 -0.2750  0.1758
  483CHL1   H2564022  10.770  -0.575   3.469 -2.0614  3.5031  0.5726
  483CHL1   C2664023  10.904  -0.671   3.618 -0.3801 -0.6673 -0.3075
  483CHL1  H26A64024  10.937  -0.664   3.724 -1.4508 -0.7800  0.0446
  483CHL1  H26B64025  10.871  -0.772   3.587 -0.7821 -0.4957 -0.4520
  483CHL1  H26C64026  10.989  -0.646   3.551 -0.6368  0.2011 -0.3217
  483CHL1   C2764027  10.651  -0.630   3.635  0.2371  0.3901 -0.3116
  483CHL1  H27A64028  10.649  -0.589   3.738 -0.2233 -1.3866  0.4184
  483CHL1  H27B64029  10.563  -0.579   3.590 -1.3162  1.8019  3.8392
  483CHL1  H27C64030  10.642  -0.741   3.636  0.9265  0.3269  1.2291
  484CHL1    C364031   1.537   2.670   2.249 -0.1724 -0.1445  0.4881
  484CHL1    H364032   1.637   2.620   2.247 -0.4914 -0.7840 -0.4947
  484CHL1    O364033   1.532   2.742   2.124  0.0796  0.3127 -0.2190
  484CHL1   H3'64034   1.619   2.769   2.095 -0.5266  0.9804 -1.4908
  484CHL1    C464035   1.418   2.581   2.264 -0.1788  0.0611  0.2624
  484CHL1   H4A64036   1.321   2.628   2.239 -0.4178 -0.5700 -0.0301
  484CHL1   H4B64037   1.436   2.500   2.190 -0.5286 -0.3872  0.6505
  484CHL1    C564038   1.408   2.514   2.402 -0.2522  0.6430  0.7179
  484CHL1    C664039   1.406   2.384   2.409 -0.2819  0.2992  0.0114
  484CHL1    H664040   1.397   2.325   2.317 -0.1831 -1.0585  0.8530
  484CHL1    C764041   1.410   2.304   2.531 -0.0890  0.3920 -0.2992
  484CHL1   H7A64042   1.327   2.230   2.534  1.1950 -1.0867  0.4535
  484CHL1   H7B64043   1.512   2.259   2.530 -1.2434 -2.4667 -1.1904
  484CHL1    C864044   1.387   2.385   2.659  0.6551  0.0861 -0.5082
  484CHL1    H864045   1.278   2.405   2.665  0.7344  0.3972 -0.0863
  484CHL1   C1464046   1.424   2.300   2.784 -0.5770 -0.1892  0.3753
  484CHL1   H1464047   1.535   2.299   2.776 -0.4347  1.7362  1.4253
  484CHL1   C1564048   1.371   2.155   2.799 -0.1315 -0.3385 -0.7578
  484CHL1  H15A64049   1.262   2.150   2.778 -0.2757 -0.4414  0.0015
  484CHL1  H15B64050   1.423   2.083   2.732  1.2077 -2.2586  2.1513
  484CHL1   C1664051   1.398   2.127   2.944  0.0102  0.4037  0.4074
  484CHL1  H16A64052   1.312   2.090   3.003  1.5319 -0.3392  2.2915
  484CHL1  H16B64053   1.487   2.060   2.950 -0.3839 -0.1341  0.2370
  484CHL1   C1764054   1.435   2.267   3.019  0.0113  0.2205  0.4163
  484CHL1   H1764055   1.545   2.271   3.011  0.0851 -0.8577  0.6949
  484CHL1   C1364056   1.390   2.374   2.917  0.0118  0.1110  0.3834
  484CHL1   C1864057   1.239   2.397   2.929 -0.6497 -0.4061 -0.4391
  484CHL1  H18A64058   1.183   2.411   2.834 -2.9464  0.5517  0.9580
  484CHL1  H18B64059   1.194   2.311   2.984 -1.9913  0.6448  0.1753
  484CHL1  H18C64060   1.228   2.492   2.987  2.0525  0.2282 -0.8275
  484CHL1   C1264061   1.473   2.496   2.910  0.3381 -0.9788 -0.2499
  484CHL1  H12A64062   1.458   2.555   3.004  2.7033  0.2569 -0.5524
  484CHL1  H12B64063   1.580   2.469   2.899  0.0356 -2.5183  0.4428
  484CHL1   C1164064   1.437   2.593   2.786  0.5397  0.3465 -1.1183
  484CHL1  H11A64065   1.333   2.627   2.803  1.1748  1.7514  0.1538
  484CHL1  H11B64066   1.498   2.686   2.787  1.8392 -0.4518  0.7470
  484CHL1    C964067   1.462   2.516   2.660 -1.1947 -0.4864  0.2466
  484CHL1    H964068   1.568   2.484   2.666 -1.7681 -2.7164 -0.5662
  484CHL1   C1064069   1.438   2.596   2.526  0.9104  0.3414  0.2643
  484CHL1   C1964070   1.302   2.679   2.550 -0.5875  0.8944  0.7868
  484CHL1  H19A64071   1.303   2.744   2.640 -2.4025 -0.4540  1.8569
  484CHL1  H19B64072   1.284   2.739   2.458  0.1330  0.6041  0.4456
  484CHL1  H19C64073   1.214   2.614   2.570 -1.2085  1.4317 -0.1315
  484CHL1    C164074   1.558   2.689   2.492 -0.1366  0.0668  0.2817
  484CHL1   H1A64075   1.579   2.757   2.577 -0.1178  2.1867 -1.3409
  484CHL1   H1B64076   1.641   2.619   2.470 -1.2092 -0.4138 -2.8019
  484CHL1    C264077   1.546   2.772   2.364 -0.5307  0.1427  0.4542
  484CHL1   H2A64078   1.647   2.817   2.356  0.8294 -2.7795  0.1512
  484CHL1   H2B64079   1.457   2.838   2.374 -0.9006 -0.5913  2.2908
  484CHL1   C2064080   1.404   2.263   3.172 -0.5620  0.4893  0.5079
  484CHL1   H2064081   1.300   2.226   3.186 -0.4231  0.2942  1.0385
  484CHL1   C2164082   1.419   2.411   3.226  0.5330  0.6867  0.0526
  484CHL1  H21A64083   1.520   2.453   3.208  0.5328  1.2343  1.2131
  484CHL1  H21B64084   1.394   2.410   3.334  0.0437 -0.0530 -0.0590
  484CHL1  H21C64085   1.345   2.471   3.169 -1.7934 -1.9960  0.0790
  484CHL1   C2264086   1.505   2.180   3.249 -0.0314 -0.2341 -0.2268
  484CHL1  H22A64087   1.508   2.075   3.212  0.0064 -0.0680 -0.7023
  484CHL1  H22B64088   1.608   2.216   3.232  0.6171 -0.3603  2.8766
  484CHL1   C2364089   1.462   2.173   3.395  0.1706 -0.0203 -0.1386
  484CHL1  H23A64090   1.464   2.268   3.451  0.7208 -0.3595  0.4341
  484CHL1  H23B64091   1.359   2.134   3.404 -0.4520  0.9726 -2.1616
  484CHL1   C2464092   1.558   2.091   3.476  0.0669  0.5355  0.4684
  484CHL1  H24A64093   1.663   2.107   3.442 -0.5466 -2.8151 -3.8574
  484CHL1  H24B64094   1.542   2.116   3.583  1.4532 -0.3839  0.9195
  484CHL1   C2564095   1.530   1.936   3.457  0.1442  0.4013  0.1173
  484CHL1   H2564096   1.532   1.901   3.352  0.4819  0.5695  0.0664
  484CHL1   C2664097   1.640   1.868   3.543  0.0170 -0.0691 -0.4361
  484CHL1  H26A64098   1.743   1.876   3.503  0.6910 -0.0376  1.2177
  484CHL1  H26B64099   1.652   1.913   3.644 -0.4553 -1.5073  0.2831
  484CHL1  H26C64100   1.611   1.762   3.556  0.1107  0.0208  0.5941
  484CHL1   C2764101   1.388   1.899   3.505 -0.4324 -0.3967  0.1609
  484CHL1  H27A64102   1.381   1.789   3.516  1.3098 -0.7048 -1.2948
  484CHL1  H27B64103   1.355   1.954   3.595 -0.6332  0.6804 -0.5536
  484CHL1  H27C64104   1.311   1.914   3.427  1.6553 -0.0277 -1.9590
  485CHL1    C364105   2.418   6.219   2.103 -0.8658  0.3365  0.5770
  485CHL1    H364106   2.475   6.313   2.117 -0.9173  0.5047 -0.2728
  485CHL1    O364107   2.416   6.177   1.967 -0.5075 -0.4134 -0.3846
  485CHL1   H3'64108   2.371   6.093   1.968  0.2949 -0.8610 -0.7349
  485CHL1    C464109   2.494   6.105   2.176 -0.5886 -0.5870 -0.4459
  485CHL1   H4A64110   2.452   6.007   2.144 -1.5222  0.1427 -1.5751
  485CHL1   H4B64111   2.594   6.103   2.129 -0.9406 -3.1948 -1.2045
  485CHL1    C564112   2.507   6.106   2.328  0.0024 -0.2206  0.0480
  485CHL1    C664113   2.622   6.098   2.399  0.9205  0.4899  0.2616
  485CHL1    H664114   2.715   6.093   2.340  0.1471  0.7873 -1.0196
  485CHL1    C764115   2.624   6.103   2.547 -0.3441  0.2939  0.8751
  485CHL1   H7A64116   2.688   6.033   2.605 -0.6028 -0.3432  0.4089
  485CHL1   H7B64117   2.674   6.195   2.584  1.0852  0.8527 -2.1654
  485CHL1    C864118   2.487   6.103   2.615 -0.1029  0.0228 -0.3411
  485CHL1    H864119   2.446   6.000   2.625  1.9366 -0.6525  1.7793
  485CHL1   C1464120   2.508   6.154   2.755 -0.4865 -0.1805  0.0506
  485CHL1   H1464121   2.536   6.261   2.745 -1.6126  0.1601  0.3749
  485CHL1   C1564122   2.612   6.095   2.847 -0.4273  0.0644 -0.1426
  485CHL1  H15A64123   2.605   5.985   2.832 -1.1691  0.2446 -1.2868
  485CHL1  H15B64124   2.713   6.133   2.820 -1.5239  2.3809 -1.2836
  485CHL1   C1664125   2.566   6.154   2.978  0.5895 -0.0834 -0.9310
  485CHL1  H16A64126   2.562   6.074   3.055  0.3162  1.3819  0.6349
  485CHL1  H16B64127   2.639   6.232   3.009  0.9073 -1.0030  0.8002
  485CHL1   C1764128   2.427   6.221   2.957  0.4349 -0.1375 -0.6279
  485CHL1   H1764129   2.443   6.329   2.937 -1.3834 -0.2008 -2.8586
  485CHL1   C1364130   2.371   6.149   2.828 -0.9738  0.1586 -0.5646
  485CHL1   C1864131   2.318   6.009   2.849  0.3421 -0.8102  0.0132
  485CHL1  H18A64132   2.399   5.958   2.906  0.5989 -0.4014  0.0188
  485CHL1  H18B64133   2.218   6.017   2.897  0.6417  2.2759  0.2961
  485CHL1  H18C64134   2.302   5.950   2.756  1.6063 -1.0428 -0.0689
  485CHL1   C1264135   2.265   6.236   2.763 -0.0922  0.3737 -0.1994
  485CHL1  H12A64136   2.166   6.231   2.813  0.1916  2.0254  0.5842
  485CHL1  H12B64137   2.299   6.341   2.768 -1.2157  0.7915 -0.9977
  485CHL1   C1164138   2.253   6.202   2.617 -0.2376  0.3913 -0.0743
  485CHL1  H11A64139   2.198   6.106   2.615 -0.4596  0.5128  0.0519
  485CHL1  H11B64140   2.191   6.277   2.562 -1.8122 -1.5753 -1.1215
  485CHL1    C964141   2.383   6.188   2.540  0.1442  0.3410  0.6078
  485CHL1    H964142   2.427   6.289   2.533 -1.3323  1.0392  1.0638
  485CHL1   C1064143   2.375   6.137   2.389  0.3404 -0.1427  0.2007
  485CHL1   C1964144   2.285   6.014   2.386  0.1911 -0.0728 -0.6601
  485CHL1  H19A64145   2.328   5.953   2.468 -2.5852  0.5771  1.4159
  485CHL1  H19B64146   2.178   6.031   2.408 -0.5388 -2.3347 -2.0150
  485CHL1  H19C64147   2.291   5.945   2.299 -2.2358 -0.6734 -0.4324
  485CHL1    C164148   2.289   6.243   2.315  0.2658 -0.0096  0.3687
  485CHL1   H1A64149   2.186   6.256   2.353  0.0245 -0.8082  0.0180
  485CHL1   H1B64150   2.344   6.338   2.329  2.6246 -1.3076  0.4721
  485CHL1    C264151   2.279   6.229   2.161  0.0868  0.0578  0.8003
  485CHL1   H2A64152   2.227   6.315   2.114 -1.7142 -0.2729  2.1044
  485CHL1   H2B64153   2.212   6.149   2.121  0.0632  0.6824 -0.4658
  485CHL1   C2064154   2.334   6.221   3.087  0.2961  0.6581 -0.1050
  485CHL1   H2064155   2.228   6.236   3.056 -0.5847  1.6351  2.9975
  485CHL1   C2164156   2.367   6.345   3.179  0.2827  1.1506  0.4812
  485CHL1  H21A64157   2.469   6.338   3.222  0.1240  0.8642  0.8166
  485CHL1  H21B64158   2.299   6.352   3.266 -0.7725 -0.8152 -0.1209
  485CHL1  H21C64159   2.359   6.439   3.121 -1.0437  1.8607  1.7465
  485CHL1   C2264160   2.333   6.097   3.176 -0.1814 -0.2452  0.6058
  485CHL1  H22A64161   2.308   6.009   3.114 -1.0098  0.4997 -0.1452
  485CHL1  H22B64162   2.437   6.090   3.216 -0.0811 -0.4213  0.3130
  485CHL1   C2364163   2.230   6.101   3.288 -0.0790 -0.3477  0.1190
  485CHL1  H23A64164   2.270   6.172   3.363  1.1043  1.7246 -2.2989
  485CHL1  H23B64165   2.134   6.150   3.258  0.2302  0.7464  0.8443
  485CHL1   C2464166   2.192   5.963   3.344  0.5609 -0.0072 -0.1090
  485CHL1  H24A64167   2.189   5.889   3.262 -3.7581 -0.6127  0.3729
  485CHL1  H24B64168   2.275   5.930   3.410  0.1375 -1.9531 -0.4953
  485CHL1   C2564169   2.057   5.974   3.420  0.0026 -0.0334  0.3282
  485CHL1   H2564170   1.992   6.042   3.361  1.0508  1.0684  0.4114
  485CHL1   C2664171   2.000   5.836   3.444  0.7346  0.1644  0.0251
  485CHL1  H26A64172   1.930   5.843   3.530 -0.4864 -1.5291 -0.7504
  485CHL1  H26B64173   1.933   5.808   3.360  1.7079 -0.0784 -0.6842
  485CHL1  H26C64174   2.069   5.751   3.465  0.6526  0.0829 -0.0309
  485CHL1   C2764175   2.069   6.044   3.559 -0.0117 -1.1592 -0.2650
  485CHL1  H27A64176   2.114   6.144   3.547 -0.0622 -1.2060 -0.8962
  485CHL1  H27B64177   1.972   6.058   3.612  1.5191  0.5881  2.2710
  485CHL1  H27C64178   2.142   6.003   3.632 -0.5593  1.1494  1.6789
  486CHL1    C364179   1.626  10.969   2.450 -0.3897 -0.0219 -1.1201
  486CHL1    H364180   1.728  10.925   2.462  0.3227  2.1407  1.7615
  486CHL1    O364181   1.601  10.998   2.314 -0.0942 -0.2100 -0.1552
  486CHL1   H3'64182   1.509  10.978   2.298  0.1138 -1.3411 -0.0494
  486CHL1    C464183   1.521  10.869   2.507  0.3406 -0.0531  0.3722
  486CHL1   H4A64184   1.425  10.923   2.493  1.8189  2.8460  0.7944
  486CHL1   H4B64185   1.509  10.780   2.441 -0.1068  0.0352  0.3337
  486CHL1    C564186   1.550  10.842   2.656  0.2246  0.7119  0.4051
  486CHL1    C664187   1.567  10.720   2.704  0.2309 -0.2514 -0.0662
  486CHL1    H664188   1.554  10.635   2.636 -1.8036 -0.6102  0.6732
  486CHL1    C764189   1.595  10.683   2.846  0.2339  0.7003  0.3815
  486CHL1   H7A64190   1.530  10.596   2.873 -0.3593  0.5860 -1.2704
  486CHL1   H7B64191   1.701  10.652   2.845 -0.0058 -0.2335 -1.4249
  486CHL1    C864192   1.580  10.803   2.945 -0.2964  0.1762 -0.1413
  486CHL1    H864193   1.470  10.814   2.955 -0.4716  0.3366 -1.9322
  486CHL1   C1464194   1.649  10.775   3.080  0.1709  0.0878  0.1283
  486CHL1   H1464195   1.758  10.758   3.067 -0.1641 -1.2132 -1.2709
  486CHL1   C1564196   1.593  10.651   3.151 -0.1673  0.2112 -0.0420
  486CHL1  H15A64197   1.483  10.657   3.163 -0.1177  0.3201  0.3753
  486CHL1  H15B64198   1.616  10.559   3.092 -2.2019 -1.2300  1.2662
  486CHL1   C1664199   1.649  10.659   3.292 -0.3456 -0.1555 -0.0870
  486CHL1  H16A64200   1.569  10.638   3.366  0.2355 -2.8684 -0.1333
  486CHL1  H16B64201   1.737  10.592   3.305 -1.5916 -1.8449 -0.0550
  486CHL1   C1764202   1.694  10.810   3.305 -0.0460 -0.7918  0.1088
  486CHL1   H1764203   1.804  10.798   3.295  0.2531  1.4297  0.2016
  486CHL1   C1364204   1.632  10.882   3.188  0.3374  0.1963  0.3734
  486CHL1   C1864205   1.484  10.905   3.217  0.0484  0.1876  0.0199
  486CHL1  H18A64206   1.431  10.823   3.269  1.0611 -2.0282 -2.2568
  486CHL1  H18B64207   1.474  10.995   3.282 -1.2491  0.9324 -1.1473
  486CHL1  H18C64208   1.423  10.930   3.127  1.2895  0.1058 -0.8599
  486CHL1   C1264209   1.695  11.011   3.130  0.7317 -0.0343 -0.4203
  486CHL1  H12A64210   1.686  11.099   3.197  0.7565 -1.7990  2.0474
  486CHL1  H12B64211   1.802  10.991   3.107  0.5234 -1.3748 -0.3176
  486CHL1   C1164212   1.629  11.051   2.995  0.6597 -0.2487  0.2058
  486CHL1  H11A64213   1.521  11.077   3.003  0.2191 -2.0252  0.4209
  486CHL1  H11B64214   1.683  11.143   2.966 -2.1559  0.8595 -2.0941
  486CHL1    C964215   1.630  10.932   2.892 -0.1040 -0.0874 -0.3008
  486CHL1    H964216   1.738  10.912   2.876  0.0010  0.7909 -0.7334
  486CHL1   C1064217   1.574  10.961   2.749 -0.6017  1.0137 -0.3548
  486CHL1   C1964218   1.432  11.021   2.758 -0.5633  1.1079 -0.2004
  486CHL1  H19A64219   1.371  10.956   2.824 -0.8221  1.4610 -0.0881
  486CHL1  H19B64220   1.437  11.122   2.803 -3.0222  0.1172  2.6307
  486CHL1  H19C64221   1.389  11.032   2.656  0.4776  2.3521 -0.5292
  486CHL1    C164222   1.668  11.068   2.680 -0.5625 -0.0891 -0.4126
  486CHL1   H1A64223   1.682  11.156   2.746 -0.4865  0.0794 -0.6497
  486CHL1   H1B64224   1.769  11.023   2.681 -0.2627  0.5765  0.0592
  486CHL1    C264225   1.627  11.098   2.541  0.3471 -0.2069  0.7641
  486CHL1   H2A64226   1.701  11.168   2.496 -1.2408 -0.1494 -1.9706
  486CHL1   H2B64227   1.529  11.147   2.524  1.0145  0.4831 -1.3897
  486CHL1   C2064228   1.670  10.861   3.451  0.3028 -0.0094  0.4702
  486CHL1   H2064229   1.565  10.837   3.480  0.2354  0.4993  0.6612
  486CHL1   C2164230   1.697  11.014   3.459  0.1589 -0.1042 -0.0962
  486CHL1  H21A64231   1.619  11.068   3.402  0.4353  0.9499  0.4922
  486CHL1  H21B64232   1.793  11.037   3.408  0.5639  0.2723  0.8242
  486CHL1  H21C64233   1.706  11.062   3.559  1.5184  0.7818 -0.6080
  486CHL1   C2264234   1.758  10.782   3.559  0.5207 -0.9654 -0.5664
  486CHL1  H22A64235   1.728  10.675   3.553  1.2703 -1.1182 -2.3897
  486CHL1  H22B64236   1.867  10.789   3.540  0.6466  0.3445  0.5205
  486CHL1   C2364237   1.733  10.843   3.701  0.2260  0.2343 -0.2598
  486CHL1  H23A64238   1.793  10.936   3.702  0.2225  0.2527 -1.1540
  486CHL1  H23B64239   1.626  10.866   3.715 -0.1246 -0.5127 -1.5643
  486CHL1   C2464240   1.773  10.762   3.826  0.0912 -0.5389 -0.2815
  486CHL1  H24A64241   1.752  10.819   3.919 -1.0834  0.5817 -1.2093
  486CHL1  H24B64242   1.698  10.681   3.840 -0.1875  0.0334  1.9560
  486CHL1   C2564243   1.914  10.704   3.848  0.6983 -0.5465 -0.5106
  486CHL1   H2564244   1.931  10.616   3.783  0.7544 -0.3957 -0.7029
  486CHL1   C2664245   2.023  10.806   3.814  0.1950  0.2944  0.2163
  486CHL1  H26A64246   2.030  10.831   3.706  2.7189 -1.2314 -0.0323
  486CHL1  H26B64247   1.996  10.904   3.858 -2.1173 -0.6813  1.1566
  486CHL1  H26C64248   2.122  10.774   3.851 -1.0496 -4.6603 -0.0209
  486CHL1   C2764249   1.933  10.652   3.992 -0.0438 -0.3877 -0.0261
  486CHL1  H27A64250   1.859  10.580   4.031  0.1635 -1.3916 -1.4294
  486CHL1  H27B64251   2.037  10.614   4.004  0.5117  1.3689  1.1291
  486CHL1  H27C64252   1.930  10.740   4.061  0.8150  1.5223 -2.2900
  487CHL1    C364253   3.520   7.150   2.569 -0.3729  0.1383 -0.5593
  487CHL1    H364254   3.421   7.170   2.615  0.6924  0.1879  1.8359
  487CHL1    O364255   3.514   7.216   2.442  0.0370  0.0037 -0.2153
  487CHL1   H3'64256   3.602   7.217   2.405 -1.2447 -1.1395 -3.7686
  487CHL1    C464257   3.626   7.223   2.659  0.3258  0.0840  0.0486
  487CHL1   H4A64258   3.712   7.227   2.588 -0.4211 -2.8012 -1.1501
  487CHL1   H4B64259   3.588   7.328   2.663  1.7845  0.6370 -0.0450
  487CHL1    C564260   3.664   7.159   2.794 -0.5003 -0.0288  0.1421
  487CHL1    C664261   3.667   7.227   2.908  0.9460 -0.4686 -0.8033
  487CHL1    H664262   3.651   7.335   2.918 -1.7697 -0.9853  1.7452
  487CHL1    C764263   3.708   7.166   3.039  0.1061  0.6827  0.1275
  487CHL1   H7A64264   3.786   7.225   3.091  0.0009 -0.5991  1.8525
  487CHL1   H7B64265   3.621   7.169   3.108  0.2066  4.0980  0.2706
  487CHL1    C864266   3.767   7.018   3.023 -0.0183 -0.0428  0.5644
  487CHL1    H864267   3.868   7.036   2.982 -0.0790  1.3851  1.0114
  487CHL1   C1464268   3.765   6.941   3.152  0.0891  0.1129  0.8964
  487CHL1   H1464269   3.661   6.913   3.180 -0.0997  0.8155  0.9263
  487CHL1   C1564270   3.803   7.027   3.275 -0.1530  0.3701 -0.6071
  487CHL1  H15A64271   3.878   7.101   3.240 -1.0967  0.9115 -1.5417
  487CHL1  H15B64272   3.714   7.083   3.312  1.3415  3.0660 -0.7942
  487CHL1   C1664273   3.859   6.919   3.373  0.5265  0.2819 -0.3896
  487CHL1  H16A64274   3.968   6.938   3.379  0.4452  1.4101 -1.8807
  487CHL1  H16B64275   3.808   6.928   3.471 -1.8271  0.1576 -1.5348
  487CHL1   C1764276   3.838   6.778   3.302  0.6653  0.2158 -0.4343
  487CHL1   H1764277   3.739   6.736   3.328  0.0024  1.0291 -1.5590
  487CHL1   C1364278   3.841   6.814   3.148  0.0292 -0.4073 -0.7203
  487CHL1   C1864279   3.987   6.838   3.104  0.2382 -0.3597 -0.6998
  487CHL1  H18A64280   3.994   6.879   3.002 -1.5044  1.4898 -0.1271
  487CHL1  H18B64281   4.033   6.907   3.178 -0.8250 -1.5446  1.1623
  487CHL1  H18C64282   4.049   6.747   3.084 -0.2208 -0.3925 -2.0438
  487CHL1   C1264283   3.767   6.727   3.050  0.5465  0.5619  0.1321
  487CHL1  H12A64284   3.823   6.634   3.027  0.3930  0.9316 -1.9555
  487CHL1  H12B64285   3.662   6.708   3.079  0.4746  1.4946  0.5391
  487CHL1   C1164286   3.748   6.791   2.916  0.3073  0.4133 -0.2449
  487CHL1  H11A64287   3.851   6.795   2.874  0.4376 -0.0844  0.0213
  487CHL1  H11B64288   3.686   6.719   2.859  1.3160 -0.1031 -0.7114
  487CHL1    C964289   3.692   6.938   2.920  0.3034 -0.6994 -0.0334
  487CHL1    H964290   3.588   6.937   2.957  0.0548 -1.0577 -0.7266
  487CHL1   C1064291   3.689   7.004   2.782  0.3151 -0.4954 -0.5439
  487CHL1   C1964292   3.830   6.994   2.707 -0.0152  0.5746 -0.9941
  487CHL1  H19A64293   3.835   7.063   2.620 -0.1737  2.1945  0.2186
  487CHL1  H19B64294   3.917   7.025   2.769  0.0060 -1.3250  0.0103
  487CHL1  H19C64295   3.847   6.897   2.656  3.6457  0.9400 -0.6756
  487CHL1    C164296   3.578   6.938   2.700 -0.1159  0.3459  0.3398
  487CHL1   H1A64297   3.611   6.833   2.691  2.0855  1.0430 -0.4095
  487CHL1   H1B64298   3.485   6.946   2.760 -2.3380 -1.0082 -2.6596
  487CHL1    C264299   3.538   6.999   2.562 -0.3100 -0.3567  0.0061
  487CHL1   H2A64300   3.450   6.952   2.512 -0.2901 -1.6166  1.1101
  487CHL1   H2B64301   3.622   6.959   2.500  0.6852 -0.2238  1.2281
  487CHL1   C2064302   3.950   6.685   3.356 -0.1353  0.1152 -0.0075
  487CHL1   H2064303   4.048   6.734   3.337 -0.2657  0.2586 -0.3185
  487CHL1   C2164304   3.959   6.545   3.286  0.5388 -0.1770  0.2735
  487CHL1  H21A64305   3.861   6.495   3.304  1.0998 -1.3292  0.2079
  487CHL1  H21B64306   4.042   6.487   3.333  0.3524  1.2672  2.5425
  487CHL1  H21C64307   3.972   6.550   3.176 -0.2657 -2.9660 -0.0375
  487CHL1   C2264308   3.943   6.670   3.508 -0.3295 -0.0689 -0.4134
  487CHL1  H22A64309   4.040   6.631   3.547 -0.8898  1.0063  2.2239
  487CHL1  H22B64310   3.932   6.768   3.559  0.4169  1.3135 -2.7397
  487CHL1   C2364311   3.839   6.574   3.566  0.3933 -0.7085  0.0202
  487CHL1  H23A64312   3.734   6.580   3.529  1.1712  0.4684 -2.1659
  487CHL1  H23B64313   3.858   6.474   3.522  0.7929  0.0341 -1.5604
  487CHL1   C2464314   3.828   6.559   3.720 -0.1495 -0.1979 -0.0969
  487CHL1  H24A64315   3.830   6.452   3.748 -0.2104 -0.3306 -0.5829
  487CHL1  H24B64316   3.913   6.611   3.767  0.4901 -1.3910  0.1057
  487CHL1   C2564317   3.695   6.629   3.777  0.4045 -0.0985  0.1572
  487CHL1   H2564318   3.612   6.560   3.752  1.6867 -2.0804  1.1092
  487CHL1   C2664319   3.715   6.623   3.927 -0.5303 -0.9504  0.5325
  487CHL1  H26A64320   3.630   6.660   3.987 -0.5680 -2.3048  1.3599
  487CHL1  H26B64321   3.746   6.522   3.962  2.9427 -0.8958 -1.8846
  487CHL1  H26C64322   3.797   6.693   3.957 -0.2911 -1.1822  0.4263
  487CHL1   C2764323   3.676   6.775   3.726  0.5018  0.2993  0.1333
  487CHL1  H27A64324   3.579   6.810   3.767 -0.6330  3.7444 -4.5949
  487CHL1  H27B64325   3.747   6.855   3.754 -0.1028  0.4056  1.4348
  487CHL1  H27C64326   3.673   6.769   3.615  3.0850  1.5977 -0.0722
  488CHL1    C364327   1.298   9.470   2.561  0.4198 -0.0005 -0.8241
  488CHL1    H364328   1.389   9.408   2.572  1.6964  1.8337 -0.5347
  488CHL1    O364329   1.288   9.515   2.427 -0.1607 -0.0188 -0.0028
  488CHL1   H3'64330   1.381   9.523   2.404  0.0257 -0.3188  0.6038
  488CHL1    C464331   1.166   9.393   2.593  0.4007  0.5696  0.3022
  488CHL1   H4A64332   1.079   9.462   2.580 -0.7999 -1.1906 -1.8853
  488CHL1   H4B64333   1.138   9.313   2.522 -2.0019  0.5312  1.1940
  488CHL1    C564334   1.162   9.343   2.741 -0.0898 -0.3315  0.4027
  488CHL1    C664335   1.153   9.211   2.771  0.2720  0.4215 -0.5678
  488CHL1    H664336   1.147   9.136   2.690 -0.1218 -0.2559  0.0775
  488CHL1    C764337   1.137   9.169   2.918 -1.3830  0.1901  0.2618
  488CHL1   H7A64338   1.067   9.084   2.935  0.1839 -0.5110  4.2119
  488CHL1   H7B64339   1.234   9.141   2.964 -1.4528 -0.7492 -0.1328
  488CHL1    C864340   1.093   9.290   3.015 -0.8328  0.6560 -0.1080
  488CHL1    H864341   0.991   9.317   2.980 -0.9226 -1.6243 -1.7802
  488CHL1   C1464342   1.099   9.247   3.159 -0.5044 -0.2320  0.1413
  488CHL1   H1464343   1.206   9.237   3.186 -0.5398  1.4920  1.0468
  488CHL1   C1564344   1.034   9.118   3.205 -0.1379  0.2824 -0.6762
  488CHL1  H15A64345   0.928   9.110   3.172 -0.1189 -2.8105 -0.2721
  488CHL1  H15B64346   1.093   9.027   3.179  0.0659  0.2764 -0.2041
  488CHL1   C1664347   1.029   9.136   3.360  0.2689  0.3062 -0.5742
  488CHL1  H16A64348   0.926   9.107   3.389  0.7002  0.5208  1.2798
  488CHL1  H16B64349   1.105   9.066   3.400  0.2205 -0.4628 -1.7832
  488CHL1   C1764350   1.057   9.285   3.391  0.1077 -0.0633 -0.3406
  488CHL1   H1764351   1.161   9.289   3.429 -0.3787 -1.9935  1.3548
  488CHL1   C1364352   1.043   9.355   3.255 -0.3187  0.1243 -0.0603
  488CHL1   C1864353   0.898   9.385   3.226 -0.3971  0.3415 -0.3185
  488CHL1  H18A64354   0.879   9.416   3.121  1.2122 -0.3950 -0.8506
  488CHL1  H18B64355   0.846   9.287   3.240  0.1198  0.1984  0.7604
  488CHL1  H18C64356   0.866   9.460   3.302 -1.2173 -1.5814  1.3540
  488CHL1   C1264357   1.134   9.478   3.246  0.1854  0.1256 -0.3075
  488CHL1  H12A64358   1.089   9.567   3.296 -1.1145  0.8537 -2.6157
  488CHL1  H12B64359   1.234   9.445   3.280 -0.1317  0.0110  0.5236
  488CHL1   C1164360   1.148   9.528   3.105 -0.0470  0.8000  0.0966
  488CHL1  H11A64361   1.047   9.572   3.092 -1.4938 -1.6821  2.0755
  488CHL1  H11B64362   1.228   9.605   3.101  0.0923  0.7068  0.9071
  488CHL1    C964363   1.181   9.417   2.993 -0.5853  0.1630  0.7542
  488CHL1    H964364   1.289   9.393   3.007  0.2471  2.7530 -0.5404
  488CHL1   C1064365   1.182   9.461   2.839 -0.5701 -0.3488 -0.2926
  488CHL1   C1964366   1.059   9.556   2.833  0.5610  0.0294 -0.3017
  488CHL1  H19A64367   0.971   9.512   2.885 -0.1164 -0.1917 -1.5916
  488CHL1  H19B64368   1.088   9.652   2.879 -0.1450 -0.1677  0.5804
  488CHL1  H19C64369   1.024   9.580   2.730  1.3430  0.4580 -0.4732
  488CHL1    C164370   1.312   9.545   2.795  1.5015  0.4678 -0.2146
  488CHL1   H1A64371   1.344   9.631   2.858 -0.7573  1.7516 -0.7177
  488CHL1   H1B64372   1.393   9.470   2.790  0.2197 -0.9988  0.1026
  488CHL1    C264373   1.310   9.593   2.648  0.5659  0.5632 -0.3404
  488CHL1   H2A64374   1.409   9.633   2.618  0.1171  0.9401 -1.3544
  488CHL1   H2B64375   1.237   9.676   2.638 -1.1138 -0.9902 -1.6829
  488CHL1   C2064376   0.965   9.329   3.508 -0.5515  0.2608  0.7497
  488CHL1   H2064377   0.862   9.330   3.467  0.4318  1.4484 -1.8863
  488CHL1   C2164378   1.007   9.472   3.562  0.4670  0.9127  0.5549
  488CHL1  H21A64379   0.919   9.516   3.614 -0.4667  0.1413 -0.3444
  488CHL1  H21B64380   1.049   9.545   3.490  0.2669  0.2707 -0.2283
  488CHL1  H21C64381   1.095   9.454   3.628 -0.2615 -0.0764  1.2857
  488CHL1   C2264382   0.970   9.228   3.623 -0.2913  0.0220  0.0470
  488CHL1  H22A64383   0.907   9.146   3.583  0.1943  0.6827 -2.1939
  488CHL1  H22B64384   1.069   9.189   3.658 -1.3728 -2.6776  0.3418
  488CHL1   C2364385   0.887   9.281   3.746  0.1601  0.5008 -0.2553
  488CHL1  H23A64386   0.930   9.373   3.791  1.6493 -1.3298  2.3197
  488CHL1  H23B64387   0.783   9.294   3.708 -0.5212 -0.8285  1.0768
  488CHL1   C2464388   0.880   9.173   3.860  0.3463 -0.7653 -0.2048
  488CHL1  H24A64389   0.981   9.144   3.895  0.3406 -2.1298 -1.2275
  488CHL1  H24B64390   0.836   9.218   3.952 -2.2745 -0.4770 -1.5074
  488CHL1   C2564391   0.802   9.043   3.833  0.3692  0.1303  0.0505
  488CHL1   H2564392   0.794   9.027   3.723  1.0326  1.6807 -0.2483
  488CHL1   C2664393   0.872   8.920   3.895  0.5120 -0.3431  0.3286
  488CHL1  H26A64394   0.906   8.944   3.998  1.3053  2.9362 -0.5533
  488CHL1  H26B64395   0.817   8.825   3.879  4.1603 -2.9037  1.7057
  488CHL1  H26C64396   0.967   8.906   3.840  1.1473  0.1521  1.2908
  488CHL1   C2764397   0.662   9.069   3.886 -0.4090  0.7830  0.1859
  488CHL1  H27A64398   0.595   8.981   3.878 -0.7813  1.0462  0.3531
  488CHL1  H27B64399   0.667   9.072   3.997 -1.2391 -1.2243  0.3279
  488CHL1  H27C64400   0.617   9.167   3.859  0.4733  1.2105  0.2410
  489CHL1    C364401   6.708   6.386   2.502  0.0935 -0.2117  0.4813
  489CHL1    H364402   6.782   6.303   2.502 -0.2530 -0.5309 -0.7774
  489CHL1    O364403   6.707   6.444   2.373 -0.2377  0.4338  0.9834
  489CHL1   H3'64404   6.692   6.537   2.392 -0.3099  0.3680  1.2508
  489CHL1    C464405   6.568   6.337   2.540  0.4203 -0.0812 -0.0163
  489CHL1   H4A64406   6.486   6.410   2.530  0.6104  0.1455  0.0789
  489CHL1   H4B64407   6.533   6.268   2.460 -1.4100  1.8447 -0.9622
  489CHL1    C564408   6.567   6.278   2.678 -0.6058 -0.1589  0.0287
  489CHL1    C664409   6.531   6.150   2.702  0.3148 -0.9188 -1.2329
  489CHL1    H664410   6.483   6.092   2.621 -0.4163 -0.4286 -1.1621
  489CHL1    C764411   6.517   6.099   2.850  0.2630 -0.6479 -0.4234
  489CHL1   H7A64412   6.421   6.043   2.857 -2.3183  3.0975 -2.2681
  489CHL1   H7B64413   6.598   6.031   2.882 -0.8218 -1.7823 -0.0174
  489CHL1    C864414   6.498   6.219   2.955  0.6388 -0.4673  0.1059
  489CHL1    H864415   6.395   6.256   2.939  0.1118 -1.9778 -0.1863
  489CHL1   C1464416   6.506   6.159   3.096  0.6831 -0.1316  0.3608
  489CHL1   H1464417   6.604   6.108   3.108 -0.1065 -1.9663 -0.6652
  489CHL1   C1564418   6.405   6.056   3.135  0.7956  0.5166  0.0762
  489CHL1  H15A64419   6.301   6.083   3.106  1.2083  1.4865 -0.5243
  489CHL1  H15B64420   6.428   5.961   3.081  0.9629 -0.7846  2.3125
  489CHL1   C1664421   6.428   6.050   3.285  0.1300  0.4408  0.1362
  489CHL1  H16A64422   6.330   6.037   3.336  1.1840 -0.0099  2.1873
  489CHL1  H16B64423   6.469   5.951   3.314 -1.1712  0.3685  1.9466
  489CHL1   C1764424   6.508   6.176   3.330  0.5172 -0.3734 -0.5857
  489CHL1   H1764425   6.610   6.135   3.344  0.4309 -0.2049  0.6130
  489CHL1   C1364426   6.500   6.266   3.205  0.1151 -0.6048 -0.3519
  489CHL1   C1864427   6.364   6.341   3.206  0.4018  0.5508  0.3052
  489CHL1  H18A64428   6.347   6.404   3.115  1.3761  2.5235  1.4172
  489CHL1  H18B64429   6.283   6.268   3.225  2.5921 -1.8365  0.9124
  489CHL1  H18C64430   6.345   6.429   3.271 -2.1804  0.5358 -0.3099
  489CHL1   C1264431   6.620   6.364   3.194  0.6186 -0.7081 -1.1805
  489CHL1  H12A64432   6.607   6.443   3.270  1.4842  0.0004 -1.7452
  489CHL1  H12B64433   6.712   6.302   3.210 -0.3940 -2.3796 -1.5914
  489CHL1   C1164434   6.622   6.422   3.050  0.0893 -0.7960  0.1897
  489CHL1  H11A64435   6.549   6.506   3.047  0.2769 -0.4278  3.3644
  489CHL1  H11B64436   6.723   6.467   3.035 -0.9268  2.2672  1.6546
  489CHL1    C964437   6.605   6.319   2.934  0.1557 -0.0622  0.1146
  489CHL1    H964438   6.703   6.268   2.945 -0.4101 -1.3137 -0.5088
  489CHL1   C1064439   6.597   6.379   2.790  0.4754 -0.0215 -0.0794
  489CHL1   C1964440   6.481   6.487   2.787  0.1639  0.5362  0.1629
  489CHL1  H19A64441   6.473   6.538   2.689 -2.4854  0.0162  0.0373
  489CHL1  H19B64442   6.380   6.445   2.806  0.2095  0.5371  0.4149
  489CHL1  H19C64443   6.506   6.564   2.863 -0.1380  0.2607  0.5501
  489CHL1    C164444   6.733   6.442   2.748  0.3345 -0.3274  0.0619
  489CHL1   H1A64445   6.748   6.521   2.825 -1.0304 -1.4791  1.5914
  489CHL1   H1B64446   6.821   6.374   2.758 -0.4719 -1.1956  1.7242
  489CHL1    C264447   6.744   6.492   2.607 -0.8639 -0.2767  0.3973
  489CHL1   H2A64448   6.848   6.522   2.581 -0.3703 -1.7171  0.5717
  489CHL1   H2B64449   6.680   6.582   2.602 -0.1396  0.1853 -3.1310
  489CHL1   C2064450   6.466   6.225   3.475 -0.8730  0.3227  0.2078
  489CHL1   H2064451   6.357   6.246   3.479 -1.3051 -1.8088  0.6347
  489CHL1   C2164452   6.523   6.363   3.519  0.0286  0.4257 -0.2857
  489CHL1  H21A64453   6.633   6.369   3.504  0.0318  2.5381  0.2893
  489CHL1  H21B64454   6.510   6.390   3.626  1.0510  1.0201 -0.2957
  489CHL1  H21C64455   6.483   6.447   3.458  1.1549  0.0024 -1.6555
  489CHL1   C2264456   6.491   6.108   3.582 -0.5705 -0.3081  0.8015
  489CHL1  H22A64457   6.441   6.013   3.553 -1.5042  0.9590 -2.1849
  489CHL1  H22B64458   6.600   6.090   3.593 -1.0705 -2.7382  2.5657
  489CHL1   C2364459   6.438   6.151   3.720 -0.0749  0.1769  0.4676
  489CHL1  H23A64460   6.501   6.233   3.760 -0.9639  0.7985  0.6133
  489CHL1  H23B64461   6.335   6.191   3.709  0.4849  1.4900 -0.1591
  489CHL1   C2464462   6.437   6.025   3.811 -0.3097  0.0861 -0.0128
  489CHL1  H24A64463   6.390   5.947   3.748  2.5407 -1.1648 -0.7225
  489CHL1  H24B64464   6.538   5.980   3.815 -0.3296  0.1179  1.5022
  489CHL1   C2564465   6.387   6.046   3.951 -0.4201  0.7572  0.0728
  489CHL1   H2564466   6.447   6.126   3.999  2.3621  1.4376 -4.0416
  489CHL1   C2664467   6.244   6.097   3.947  0.0397  0.3838 -0.2279
  489CHL1  H26A64468   6.196   6.096   4.047 -2.5290 -2.6773 -1.3133
  489CHL1  H26B64469   6.229   6.199   3.908 -0.8230  0.1268 -0.6017
  489CHL1  H26C64470   6.191   6.029   3.877  0.7384  0.1211 -0.5192
  489CHL1   C2764471   6.402   5.913   4.033  0.3037  0.1396 -0.3816
  489CHL1  H27A64472   6.366   5.933   4.136  1.1474 -0.0363 -0.0401
  489CHL1  H27B64473   6.343   5.825   3.999 -1.0320  1.0596 -0.5125
  489CHL1  H27C64474   6.508   5.880   4.043 -0.4607 -2.0292  1.1598
  490CHL1    C364475  11.511   5.468   2.419 -0.4515  0.6731 -0.1486
  490CHL1    H364476  11.470   5.370   2.454  0.9605  0.5829  1.3594
  490CHL1    O364477  11.488   5.475   2.281 -0.1616 -0.3411  0.7971
  490CHL1   H3'64478  11.516   5.563   2.253  1.7926 -1.2245 -0.1666
  490CHL1    C464479  11.443   5.584   2.490 -0.0859  0.8246 -0.0483
  490CHL1   H4A64480  11.480   5.681   2.451  0.3006 -0.0189 -1.8831
  490CHL1   H4B64481  11.334   5.591   2.470 -0.3726 -0.1069  1.0584
  490CHL1    C564482  11.473   5.573   2.634 -0.1761  0.0573 -1.0867
  490CHL1    C664483  11.371   5.558   2.716  0.0783  0.0598  0.5950
  490CHL1    H664484  11.272   5.546   2.670  1.2798 -2.0599 -1.7394
  490CHL1    C764485  11.379   5.550   2.865  0.2381 -0.0611 -0.2225
  490CHL1   H7A64486  11.301   5.620   2.904  0.1865  0.6923 -1.6125
  490CHL1   H7B64487  11.366   5.442   2.885 -0.7413  0.0278 -0.2852
  490CHL1    C864488  11.513   5.599   2.927 -0.0628 -0.4961 -0.7906
  490CHL1    H864489  11.512   5.710   2.927  1.2696 -0.4752 -0.5157
  490CHL1   C1464490  11.539   5.552   3.068 -0.1274  0.5003 -0.4511
  490CHL1   H1464491  11.546   5.443   3.052 -1.3368  0.0344  1.8050
  490CHL1   C1564492  11.425   5.567   3.175  0.2390  0.4111  0.2715
  490CHL1  H15A64493  11.381   5.667   3.156 -0.8659 -0.0389  0.4117
  490CHL1  H15B64494  11.350   5.488   3.152 -0.3396  1.4574 -1.7135
  490CHL1   C1664495  11.504   5.554   3.306 -0.9457 -0.3576 -0.4743
  490CHL1  H16A64496  11.504   5.643   3.373  5.4514 -0.4193  0.1845
  490CHL1  H16B64497  11.461   5.470   3.365 -0.4945 -0.1251  0.2003
  490CHL1   C1764498  11.656   5.529   3.268 -0.8487  0.2251 -0.4030
  490CHL1   H1764499  11.659   5.421   3.244  1.6662 -0.3722  2.1219
  490CHL1   C1364500  11.675   5.598   3.132  0.1415  1.2261  0.2383
  490CHL1   C1864501  11.677   5.750   3.153 -0.1168  0.4386  0.5976
  490CHL1  H18A64502  11.775   5.780   3.197 -0.3169  0.6864  0.8782
  490CHL1  H18B64503  11.680   5.805   3.057 -1.2122  0.7704  0.7477
  490CHL1  H18C64504  11.598   5.789   3.221 -1.6181  0.6362 -1.1832
  490CHL1   C1264505  11.793   5.555   3.042  0.7782  0.1102  0.4263
  490CHL1  H12A64506  11.889   5.594   3.084  1.1109 -0.3410  0.0942
  490CHL1  H12B64507  11.806   5.445   3.042  2.6520  0.2340 -2.4868
  490CHL1   C1164508  11.776   5.593   2.893  0.0367  0.7312 -0.3303
  490CHL1  H11A64509  11.782   5.704   2.883 -1.2774  0.7993 -0.4636
  490CHL1  H11B64510  11.849   5.539   2.829 -0.7401  0.8983 -1.3883
  490CHL1    C964511  11.634   5.558   2.836  0.1766 -0.5099  0.3876
  490CHL1    H964512  11.632   5.447   2.841  1.5792 -0.6359 -0.9233
  490CHL1   C1064513  11.619   5.580   2.684  0.2010  0.0126 -0.6854
  490CHL1   C1964514  11.681   5.719   2.651  0.2226 -0.4700  0.2163
  490CHL1  H19A64515  11.670   5.758   2.548 -1.4118  2.5729  1.4170
  490CHL1  H19B64516  11.635   5.800   2.711 -1.2160 -1.1699  0.1011
  490CHL1  H19C64517  11.792   5.711   2.660  0.3402 -2.2272 -2.0424
  490CHL1    C164518  11.675   5.460   2.604 -0.1664  0.4508  0.0150
  490CHL1   H1A64519  11.782   5.453   2.633 -0.9793  2.6712  4.3836
  490CHL1   H1B64520  11.633   5.361   2.632  2.3546 -1.0929 -1.3110
  490CHL1    C264521  11.659   5.462   2.451 -0.0754 -0.2401 -0.7467
  490CHL1   H2A64522  11.708   5.372   2.408  0.3393 -0.5919  0.3966
  490CHL1   H2B64523  11.714   5.549   2.410  0.5720  0.0707  0.6838
  490CHL1   C2064524  11.772   5.542   3.370 -0.1193  0.0082 -0.3743
  490CHL1   H2064525  11.867   5.547   3.313 -0.9407  0.8304 -1.7287
  490CHL1   C2164526  11.780   5.411   3.444 -0.3437 -0.1564  0.0789
  490CHL1  H21A64527  11.869   5.407   3.511 -0.1965 -3.4713 -0.1537
  490CHL1  H21B64528  11.795   5.328   3.372  0.0619  0.0203 -0.0430
  490CHL1  H21C64529  11.698   5.398   3.517 -0.6852  0.6567 -0.1525
  490CHL1   C2264530  11.763   5.664   3.464 -0.7854 -0.6966  0.4319
  490CHL1  H22A64531  11.800   5.752   3.407 -0.6628 -0.6611  0.5663
  490CHL1  H22B64532  11.660   5.681   3.500 -1.3649 -1.8557 -0.6186
  490CHL1   C2364533  11.849   5.654   3.590 -0.0451 -0.0565 -0.3708
  490CHL1  H23A64534  11.802   5.580   3.657  0.9725 -0.5203 -0.1425
  490CHL1  H23B64535  11.951   5.615   3.568  0.6359  0.6993  1.2412
  490CHL1   C2464536  11.876   5.790   3.650 -0.1238 -0.2325  0.0266
  490CHL1  H24A64537  11.915   5.858   3.572  1.7082 -0.5532  0.6036
  490CHL1  H24B64538  11.786   5.840   3.691  0.8724  2.6026 -1.0346
  490CHL1   C2564539  11.968   5.780   3.777 -0.1592 -0.2118  0.4373
  490CHL1   H2564540  11.932   5.698   3.842  1.1902 -0.3288  1.0516
  490CHL1   C2664541  12.110   5.743   3.734 -0.2376 -0.5647  0.1739
  490CHL1  H26A64542  12.178   5.725   3.819 -0.1370 -0.1002  0.1940
  490CHL1  H26B64543  12.101   5.651   3.672 -1.4994 -0.2280 -0.1757
  490CHL1  H26C64544  12.150   5.831   3.679  0.2257 -0.2002  1.0788
  490CHL1   C2764545  11.974   5.907   3.855  0.8259  0.1552  0.1040
  490CHL1  H27A64546  12.037   5.977   3.797  0.3070  0.3060 -0.2828
  490CHL1  H27B64547  11.874   5.951   3.876  0.5976  1.4762 -3.1908
  490CHL1  H27C64548  12.025   5.879   3.950  1.9496 -0.2367 -0.5913
  491CHL1    C364549   5.393   4.395   2.556  0.4261  0.4319 -0.4605
  491CHL1    H364550   5.299   4.342   2.529  0.8737  0.4108 -2.0983
  491CHL1    O364551   5.473   4.382   2.437 -0.4138 -0.9800 -0.5880
  491CHL1   H3'64552   5.558   4.397   2.479 -0.8347 -2.4550  0.8793
  491CHL1    C464553   5.369   4.548   2.578  0.3405  0.2484  0.3368
  491CHL1   H4A64554   5.456   4.617   2.583 -0.8195  1.7523  0.5332
  491CHL1   H4B64555   5.315   4.574   2.484 -0.1062 -1.2760  0.1466
  491CHL1    C564556   5.293   4.561   2.704  0.4232 -0.5050 -0.2245
  491CHL1    C664557   5.172   4.623   2.708 -0.2771 -0.2711 -0.5904
  491CHL1    H664558   5.133   4.676   2.620  2.0550 -1.0100 -2.1611
  491CHL1    C764559   5.100   4.642   2.831  0.1387 -0.0893  0.0170
  491CHL1   H7A64560   5.069   4.749   2.839  1.1704  0.1615  0.8115
  491CHL1   H7B64561   5.010   4.577   2.833 -0.3785  0.5569 -1.2489
  491CHL1    C864562   5.182   4.611   2.962 -0.2720 -0.1076 -0.0736
  491CHL1    H864563   5.242   4.703   2.976 -0.5106  0.2479 -1.2767
  491CHL1   C1464564   5.089   4.589   3.080  0.1105 -0.1667  0.3038
  491CHL1   H1464565   5.051   4.490   3.045  2.2210 -0.9860  0.2099
  491CHL1   C1564566   4.954   4.664   3.096  0.2398  0.1087 -0.0057
  491CHL1  H15A64567   4.968   4.774   3.090 -0.3193  0.1488 -0.6682
  491CHL1  H15B64568   4.885   4.626   3.018 -0.8998  2.5592 -0.2704
  491CHL1   C1664569   4.916   4.633   3.236 -0.3995 -0.3640 -0.5202
  491CHL1  H16A64570   4.917   4.738   3.274  1.0333  0.3425 -2.3899
  491CHL1  H16B64571   4.809   4.605   3.249 -0.4439  0.8321  2.8091
  491CHL1   C1764572   5.027   4.542   3.301  0.5011  0.2258 -1.1732
  491CHL1   H1764573   5.006   4.436   3.274  1.2744 -0.9662  2.3191
  491CHL1   C1364574   5.156   4.566   3.216  0.1687  0.6568 -0.8088
  491CHL1   C1864575   5.225   4.694   3.259  0.3655 -0.3631  0.0406
  491CHL1  H18A64576   5.144   4.769   3.264 -1.2735 -2.1084  1.3898
  491CHL1  H18B64577   5.267   4.690   3.362  0.8307 -0.1712 -0.1368
  491CHL1  H18C64578   5.306   4.711   3.185 -0.3755  1.6943 -0.3610
  491CHL1   C1264579   5.252   4.443   3.201 -0.1567  0.2239  0.2187
  491CHL1  H12A64580   5.308   4.430   3.296  1.1792 -1.9210 -0.7811
  491CHL1  H12B64581   5.194   4.350   3.184  2.0484 -1.4920  1.5156
  491CHL1   C1164582   5.345   4.456   3.078 -0.6946 -0.5087 -0.1515
  491CHL1  H11A64583   5.418   4.528   3.120 -0.7803 -0.0790 -0.7214
  491CHL1  H11B64584   5.415   4.370   3.071  3.6692  2.7689 -1.5178
  491CHL1    C964585   5.271   4.490   2.951  0.2334  0.6086 -0.4497
  491CHL1    H964586   5.197   4.411   2.928 -0.3005  1.6523 -2.6452
  491CHL1   C1064587   5.362   4.488   2.830  0.8962 -0.4002 -0.3458
  491CHL1   C1964588   5.492   4.575   2.855  0.3509  0.3965  0.2452
  491CHL1  H19A64589   5.567   4.534   2.926 -0.7534 -0.4629  0.9572
  491CHL1  H19B64590   5.550   4.586   2.761  0.9699  0.1549  0.5992
  491CHL1  H19C64591   5.469   4.677   2.893 -3.8833 -0.3829  0.2899
  491CHL1    C164592   5.394   4.346   2.799  0.0476  0.0079  0.0010
  491CHL1   H1A64593   5.460   4.321   2.885 -0.8577  2.6205  1.5711
  491CHL1   H1B64594   5.303   4.282   2.804 -0.3767  0.6628  0.9419
  491CHL1    C264595   5.469   4.323   2.662 -0.4262  0.7084 -0.7228
  491CHL1   H2A64596   5.483   4.219   2.626  0.6587  1.2468 -1.9491
  491CHL1   H2B64597   5.575   4.358   2.668 -0.2467 -0.0430  1.9800
  491CHL1   C2064598   5.032   4.554   3.456 -0.1377  0.5246  0.3222
  491CHL1   H2064599   5.068   4.657   3.479  0.6400  0.5109 -0.7606
  491CHL1   C2164600   5.141   4.465   3.520  0.0359 -0.2069 -0.0543
  491CHL1  H21A64601   5.147   4.362   3.479  0.1126  1.1932 -3.9082
  491CHL1  H21B64602   5.116   4.460   3.629 -0.0541  0.6370 -0.0305
  491CHL1  H21C64603   5.244   4.507   3.516 -0.9709  2.2963 -2.7363
  491CHL1   C2264604   4.898   4.539   3.526  0.0498 -0.6382  0.7625
  491CHL1  H22A64605   4.825   4.610   3.480  0.8177  0.0369  0.5601
  491CHL1  H22B64606   4.845   4.441   3.529 -0.1140 -0.6293 -0.8455
  491CHL1   C2364607   4.893   4.594   3.670 -0.0692 -0.6383 -0.4580
  491CHL1  H23A64608   4.967   4.563   3.746 -1.1282  0.1966  0.9702
  491CHL1  H23B64609   4.917   4.700   3.648  1.2423 -1.1391 -1.5717
  491CHL1   C2464610   4.766   4.568   3.747  0.1178  0.2431  0.9179
  491CHL1  H24A64611   4.692   4.630   3.693  0.4606  0.4374  0.6627
  491CHL1  H24B64612   4.742   4.460   3.736 -0.0506  0.2156  1.5622
  491CHL1   C2564613   4.764   4.610   3.897  0.3165 -0.4103 -0.1155
  491CHL1   H2564614   4.857   4.561   3.935  0.1201 -2.5614 -2.1713
  491CHL1   C2664615   4.772   4.764   3.912  0.0887 -0.1530 -0.2660
  491CHL1  H26A64616   4.678   4.800   3.864 -0.3793  1.6549  1.8521
  491CHL1  H26B64617   4.779   4.792   4.019 -0.1411 -3.3849  0.7044
  491CHL1  H26C64618   4.858   4.809   3.859  1.1490  0.6177  2.0155
  491CHL1   C2764619   4.650   4.545   3.977 -0.7447 -0.4224  0.4428
  491CHL1  H27A64620   4.661   4.435   3.959  3.0539  0.1047 -1.4716
  491CHL1  H27B64621   4.647   4.569   4.085 -1.1641  2.3552 -0.1146
  491CHL1  H27C64622   4.552   4.584   3.940 -0.6171  0.9054  1.4335
  492CHL1    C364623   2.436  10.284   2.607  0.5336  0.3303 -0.8072
  492CHL1    H364624   2.463  10.177   2.597 -0.1357  0.2843 -2.6693
  492CHL1    O364625   2.381  10.331   2.483 -0.3729  0.4937 -0.2123
  492CHL1   H3'64626   2.402  10.423   2.466  1.8568 -0.0375 -0.6142
  492CHL1    C464627   2.331  10.290   2.716  0.1407 -0.6098 -0.3666
  492CHL1   H4A64628   2.280  10.388   2.710 -1.4783 -1.5090 -2.5649
  492CHL1   H4B64629   2.260  10.212   2.683  0.7540 -0.8286 -1.1921
  492CHL1    C564630   2.373  10.260   2.853  0.6770  0.5129  0.2288
  492CHL1    C664631   2.307  10.171   2.932 -0.7972 -0.3810 -0.4364
  492CHL1    H664632   2.227  10.117   2.879 -0.4208 -1.6968  0.2840
  492CHL1    C764633   2.343  10.135   3.070  0.2762  0.7474  0.0655
  492CHL1   H7A64634   2.259  10.131   3.141  0.1626  0.7006 -0.0710
  492CHL1   H7B64635   2.392  10.035   3.067 -0.1178  0.5186  1.0248
  492CHL1    C864636   2.443  10.232   3.135  0.0606 -0.8211  0.0966
  492CHL1    H864637   2.381  10.319   3.164  3.0450  2.4806 -2.6254
  492CHL1   C1464638   2.517  10.162   3.251  0.3463 -0.6933 -0.2458
  492CHL1   H1464639   2.582  10.083   3.208 -0.1470 -0.9065 -0.6113
  492CHL1   C1564640   2.437  10.077   3.347 -0.1097 -0.0424  0.2218
  492CHL1  H15A64641   2.346  10.138   3.357  0.5375  0.6237  2.5670
  492CHL1  H15B64642   2.422   9.976   3.302  0.7066  0.3202 -0.9260
  492CHL1   C1664643   2.523  10.070   3.473  0.3428  0.4332  0.6005
  492CHL1  H16A64644   2.478  10.110   3.566 -0.2972  2.5641 -0.5564
  492CHL1  H16B64645   2.551   9.965   3.494  0.0227 -0.0556 -1.2199
  492CHL1   C1764646   2.653  10.157   3.448 -0.6576 -0.2693 -0.1600
  492CHL1   H1764647   2.725  10.092   3.394 -1.0892 -0.9314  0.0485
  492CHL1   C1364648   2.617  10.250   3.332  0.3568 -0.0171  0.3326
  492CHL1   C1864649   2.534  10.366   3.396  0.2040 -0.7656 -0.0228
  492CHL1  H18A64650   2.479  10.411   3.311 -1.3373 -0.1974  1.2339
  492CHL1  H18B64651   2.467  10.335   3.479  0.9546  0.5692  1.1327
  492CHL1  H18C64652   2.596  10.454   3.426 -2.4671  1.6385 -1.1549
  492CHL1   C1264653   2.720  10.302   3.229 -0.7756  0.2108  0.0490
  492CHL1  H12A64654   2.789  10.378   3.272 -1.6421 -0.6735  3.3479
  492CHL1  H12B64655   2.759  10.203   3.196 -0.7949  0.1028  0.3378
  492CHL1   C1164656   2.652  10.371   3.110 -0.3692 -0.2166 -0.0666
  492CHL1  H11A64657   2.605  10.468   3.137 -1.5718 -0.1534 -2.1362
  492CHL1  H11B64658   2.735  10.399   3.041 -0.0847  1.3033  0.8369
  492CHL1    C964659   2.552  10.278   3.039  0.3055 -0.5826 -0.4512
  492CHL1    H964660   2.603  10.182   3.014 -2.6054 -2.3372 -0.2149
  492CHL1   C1064661   2.497  10.338   2.908 -0.0711  0.1703 -0.4904
  492CHL1   C1964662   2.456  10.483   2.930 -0.4498 -0.4189 -0.1181
  492CHL1  H19A64663   2.544  10.550   2.936 -1.7250  1.2540  0.7869
  492CHL1  H19B64664   2.396  10.523   2.846  1.2668 -0.4219 -1.3714
  492CHL1  H19C64665   2.390  10.483   3.020 -0.3001 -1.6946  0.0112
  492CHL1    C164666   2.602  10.334   2.796 -0.4878  0.2606 -0.2541
  492CHL1   H1A64667   2.683  10.402   2.828 -0.0173  0.0953 -1.0538
  492CHL1   H1B64668   2.644  10.231   2.788 -0.8528 -0.3897  3.9668
  492CHL1    C264669   2.557  10.370   2.652 -0.1832  0.0400  0.1834
  492CHL1   H2A64670   2.642  10.354   2.581  0.8428  1.8181  0.9471
  492CHL1   H2B64671   2.528  10.476   2.637 -1.4710 -0.3113  0.0872
  492CHL1   C2064672   2.723  10.205   3.573 -0.4810  0.3910 -0.6785
  492CHL1   H2064673   2.660  10.274   3.635  0.2573 -1.2827  2.1478
  492CHL1   C2164674   2.858  10.274   3.536  0.5474 -0.1813  0.2320
  492CHL1  H21A64675   2.903  10.187   3.483 -0.9680 -1.4499  0.9436
  492CHL1  H21B64676   2.916  10.300   3.626  0.4391 -1.1445  0.5950
  492CHL1  H21C64677   2.840  10.352   3.459  0.8750 -1.0720 -0.7803
  492CHL1   C2264678   2.757  10.086   3.668 -0.1627  0.2211 -0.7061
  492CHL1  H22A64679   2.680  10.006   3.661  0.8344 -0.7472 -1.0015
  492CHL1  H22B64680   2.848  10.036   3.628 -0.6587 -2.1876  0.9371
  492CHL1   C2364681   2.770  10.133   3.808 -0.0270 -0.5255 -0.3139
  492CHL1  H23A64682   2.835  10.222   3.817 -0.8836  0.1677 -0.8290
  492CHL1  H23B64683   2.670  10.167   3.843  0.4335  1.1250 -0.5352
  492CHL1   C2464684   2.834  10.029   3.906  0.3332  0.1875  0.2655
  492CHL1  H24A64685   2.756   9.950   3.909  0.7750 -0.3126 -0.7855
  492CHL1  H24B64686   2.922   9.978   3.860 -0.2097  0.8339 -1.5979
  492CHL1   C2564687   2.855  10.061   4.051 -0.1965  0.4353  0.0043
  492CHL1   H2564688   2.757  10.105   4.078 -0.7679 -0.0044 -1.2650
  492CHL1   C2664689   2.888   9.939   4.140  0.4757 -0.5521 -0.5029
  492CHL1  H26A64690   2.901   9.966   4.247 -0.4964  0.0769 -0.5290
  492CHL1  H26B64691   2.805   9.865   4.144  0.1554 -0.3001 -2.0302
  492CHL1  H26C64692   2.976   9.882   4.103 -0.0561 -0.6426 -1.6574
  492CHL1   C2764693   2.958  10.175   4.081 -0.5282  0.4574  0.2308
  492CHL1  H27A64694   2.945  10.201   4.188  2.2680 -1.4741  1.1412
  492CHL1  H27B64695   3.058  10.128   4.069 -1.4472 -1.5565  0.1837
  492CHL1  H27C64696   2.947  10.269   4.023  2.1242 -0.3461 -1.7896
  493CHL1    C364697  10.822   8.367   2.220  0.2240 -0.5226 -0.0980
  493CHL1    H364698  10.758   8.456   2.241 -2.6046 -2.1314 -1.2890
  493CHL1    O364699  10.849   8.335   2.086  0.3762 -0.4437 -0.2688
  493CHL1   H3'64700  10.763   8.338   2.045 -0.6608  1.6766  1.7944
  493CHL1    C464701  10.958   8.391   2.292  0.1751  0.0426  0.6888
  493CHL1   H4A64702  11.015   8.298   2.272 -0.3734 -0.2666  0.5571
  493CHL1   H4B64703  11.004   8.481   2.245 -0.4602 -0.5224 -1.1089
  493CHL1    C564704  10.940   8.404   2.441 -0.1346  0.4253 -0.3335
  493CHL1    C664705  10.984   8.518   2.502  0.1877  0.3317  0.5183
  493CHL1    H664706  11.038   8.595   2.445  0.5765 -1.0887 -1.1174
  493CHL1    C764707  10.968   8.551   2.651 -0.2070  0.4883  0.0452
  493CHL1   H7A64708  11.065   8.583   2.696 -1.0764  2.0843  0.8661
  493CHL1   H7B64709  10.897   8.636   2.654 -0.7647  0.0612 -0.8157
  493CHL1    C864710  10.907   8.431   2.731  0.1572 -1.0575  0.2092
  493CHL1    H864711  10.995   8.369   2.756  1.2349  1.0101  1.8463
  493CHL1   C1464712  10.846   8.479   2.858  0.0931  0.4490 -0.2328
  493CHL1   H1464713  10.757   8.538   2.825 -1.9799 -2.0674  0.5592
  493CHL1   C1564714  10.930   8.570   2.953  0.3499 -0.2718 -0.7663
  493CHL1  H15A64715  11.026   8.516   2.970  0.3254  0.3168  1.4789
  493CHL1  H15B64716  10.954   8.669   2.908 -0.8559 -1.1744 -3.6653
  493CHL1   C1664717  10.845   8.576   3.083  0.2507 -0.0011 -0.2491
  493CHL1  H16A64718  10.922   8.555   3.161 -1.9479 -0.8056  1.8273
  493CHL1  H16B64719  10.797   8.674   3.105  0.2452 -0.4143  1.7383
  493CHL1   C1764720  10.746   8.455   3.071 -0.2611  0.3235  0.1052
  493CHL1   H1764721  10.648   8.492   3.033 -1.1083 -1.0919  0.8259
  493CHL1   C1364722  10.795   8.368   2.950  0.3839 -0.5129 -0.6518
  493CHL1   C1864723  10.906   8.273   3.008  0.2729  0.6182  0.6176
  493CHL1  H18A64724  10.862   8.209   3.087 -0.2284 -0.2694 -0.3649
  493CHL1  H18B64725  10.961   8.214   2.931  0.0863  0.8581  0.2972
  493CHL1  H18C64726  10.992   8.318   3.063  1.7844  0.2206 -1.2974
  493CHL1   C1264727  10.689   8.284   2.869  0.8264  0.2037  0.5362
  493CHL1  H12A64728  10.647   8.199   2.927 -1.7337  1.1557  0.2256
  493CHL1  H12B64729  10.599   8.348   2.853  1.2401  0.5287 -0.5915
  493CHL1   C1164730  10.749   8.235   2.738 -0.0624 -0.5119  0.0741
  493CHL1  H11A64731  10.830   8.167   2.768  1.6384  1.5525  0.3887
  493CHL1  H11B64732  10.675   8.178   2.676  0.5391 -0.2359 -0.9268
  493CHL1    C964733  10.805   8.348   2.649 -0.0482 -0.0907  0.5693
  493CHL1    H964734  10.728   8.425   2.628 -0.6282 -0.8833 -0.2535
  493CHL1   C1064735  10.855   8.299   2.509  0.2878 -0.5326  0.5110
  493CHL1   C1964736  10.931   8.170   2.521 -0.3812  0.5484  0.2262
  493CHL1  H19A64737  10.974   8.147   2.421  3.7564  0.9334  1.7079
  493CHL1  H19B64738  11.013   8.184   2.595  0.8701 -0.0861 -0.9989
  493CHL1  H19C64739  10.862   8.095   2.563 -0.9109  0.8415 -0.1078
  493CHL1    C164740  10.724   8.270   2.429 -0.2611  0.4685  0.5834
  493CHL1   H1A64741  10.664   8.183   2.464  3.1962 -1.8181  1.2534
  493CHL1   H1B64742  10.662   8.362   2.434  0.0618  0.6290  2.9929
  493CHL1    C264743  10.752   8.247   2.277 -0.4424  0.1568 -0.1942
  493CHL1   H2A64744  10.649   8.237   2.238 -0.9053 -1.4955  1.3020
  493CHL1   H2B64745  10.811   8.154   2.258  0.0974  0.6528 -1.0068
  493CHL1   C2064746  10.722   8.400   3.213  0.1670 -0.6615  0.0497
  493CHL1   H2064747  10.807   8.335   3.242  0.7068 -0.1987 -0.4734
  493CHL1   C2164748  10.598   8.303   3.207 -0.3879 -0.6898 -0.1144
  493CHL1  H21A64749  10.513   8.368   3.175  0.9349  0.0131 -2.4540
  493CHL1  H21B64750  10.572   8.258   3.305 -0.1737 -0.3129  0.1198
  493CHL1  H21C64751  10.611   8.220   3.135 -0.0469 -0.3566 -0.4454
  493CHL1   C2264752  10.694   8.502   3.324 -0.3852 -0.8948  0.3469
  493CHL1  H22A64753  10.782   8.569   3.313  1.5926 -3.3109  0.4038
  493CHL1  H22B64754  10.606   8.562   3.295 -0.5587 -1.9804 -1.6224
  493CHL1   C2364755  10.676   8.455   3.466  0.0834  0.4510  0.0592
  493CHL1  H23A64756  10.594   8.381   3.478 -1.1474  1.8978  0.8178
  493CHL1  H23B64757  10.773   8.412   3.501  0.7110  1.4455 -0.4133
  493CHL1   C2464758  10.643   8.572   3.560  0.4679  0.0559  0.7964
  493CHL1  H24A64759  10.638   8.534   3.665 -0.6476 -0.1954  0.6684
  493CHL1  H24B64760  10.720   8.652   3.556  0.1745  0.3125  0.0865
  493CHL1   C2564761  10.502   8.636   3.540  0.5459  0.0535 -0.0760
  493CHL1   H2564762  10.494   8.677   3.437 -0.3682 -0.5570 -0.2659
  493CHL1   C2664763  10.381   8.540   3.560 -0.7359 -0.7230  0.4775
  493CHL1  H26A64764  10.290   8.595   3.527  0.4981  0.4996 -1.0754
  493CHL1  H26B64765  10.397   8.440   3.514 -1.6948 -0.3761 -0.6654
  493CHL1  H26C64766  10.370   8.523   3.669 -0.0428 -0.5031  0.5846
  493CHL1   C2764767  10.488   8.749   3.636  0.0968 -0.2222 -0.9721
  493CHL1  H27A64768  10.573   8.822   3.632 -1.9682  2.4114  0.1503
  493CHL1  H27B64769  10.393   8.804   3.619 -0.7790 -1.6058 -0.6888
  493CHL1  H27C64770  10.487   8.705   3.738  1.4134  1.0138 -0.3884
  494CHL1    C364771  11.942   7.928   2.360 -0.2545  0.1237  0.0640
  494CHL1    H364772  11.960   8.037   2.357  1.7481 -0.1548  0.3997
  494CHL1    O364773  11.947   7.884   2.227  0.2449  0.3885 -0.0060
  494CHL1   H3'64774  11.971   7.791   2.232 -1.7193 -0.1057  2.0831
  494CHL1    C464775  12.055   7.868   2.449  0.5098  0.3079  0.8789
  494CHL1   H4A64776  12.036   7.758   2.454  1.7941  0.0981  1.3541
  494CHL1   H4B64777  12.151   7.887   2.397 -0.8606 -1.5745 -2.6998
  494CHL1    C564778  12.046   7.912   2.593 -0.3905 -0.5747  0.1496
  494CHL1    C664779  12.150   7.972   2.647  0.0180 -0.5233  0.1619
  494CHL1    H664780  12.240   7.975   2.584  0.0045 -1.1937  0.1022
  494CHL1    C764781  12.153   8.018   2.789  0.3030 -0.5142  0.0643
  494CHL1   H7A64782  12.248   7.981   2.833  0.5269  0.0543  0.0699
  494CHL1   H7B64783  12.145   8.129   2.785 -0.5809 -0.5945 -1.2971
  494CHL1    C864784  12.030   7.975   2.872  0.4882  0.5617 -0.6455
  494CHL1    H864785  12.044   7.872   2.910  1.2363  1.7870  2.7579
  494CHL1   C1464786  12.027   8.063   2.997 -0.3348  0.3080  0.4254
  494CHL1   H1464787  12.015   8.166   2.956 -0.2930  0.6050  1.1485
  494CHL1   C1564788  12.150   8.071   3.084 -0.5858 -0.2333  0.5179
  494CHL1  H15A64789  12.188   7.969   3.108 -2.0003 -0.9613 -0.2246
  494CHL1  H15B64790  12.238   8.124   3.042  0.8451 -2.0215  1.0963
  494CHL1   C1664791  12.098   8.135   3.205 -0.4278 -0.0310  0.5739
  494CHL1  H16A64792  12.132   8.092   3.302  0.9321 -0.6530 -0.1615
  494CHL1  H16B64793  12.124   8.243   3.213  0.6602 -0.1143 -1.3146
  494CHL1   C1764794  11.939   8.134   3.200 -1.1603  0.0155  0.7288
  494CHL1   H1764795  11.911   8.233   3.159 -1.8313 -0.0383  1.0441
  494CHL1   C1364796  11.904   8.038   3.083 -0.4646 -0.7763  0.8360
  494CHL1   C1864797  11.894   7.896   3.140  0.2026  0.3302  0.8561
  494CHL1  H18A64798  11.917   7.820   3.062  1.4256  1.6831 -0.1847
  494CHL1  H18B64799  11.977   7.868   3.208  1.0613 -1.6465 -0.8868
  494CHL1  H18C64800  11.798   7.871   3.189  0.7614  0.1801  1.8963
  494CHL1   C1264801  11.786   8.078   2.993 -0.1596 -0.6582  0.7685
  494CHL1  H12A64802  11.691   8.072   3.050  0.3183 -0.7067  1.5656
  494CHL1  H12B64803  11.792   8.186   2.968 -0.2388 -0.8028  0.1005
  494CHL1   C1164804  11.774   7.983   2.873 -0.2710  0.1886  0.9025
  494CHL1  H11A64805  11.761   7.879   2.910  1.1118 -0.6410 -0.8353
  494CHL1  H11B64806  11.683   8.010   2.815 -0.7375 -2.5882  0.2063
  494CHL1    C964807  11.906   7.986   2.790 -0.7195 -0.5897  0.3471
  494CHL1    H964808  11.904   8.093   2.760 -0.3253 -0.5683  0.3972
  494CHL1   C1064809  11.912   7.903   2.661 -0.0509  0.2222  0.3548
  494CHL1   C1964810  11.888   7.752   2.688 -0.4155 -0.1864 -0.2293
  494CHL1  H19A64811  11.782   7.727   2.711 -0.3620 -1.2386 -1.0115
  494CHL1  H19B64812  11.923   7.687   2.605  1.7562  1.0298 -0.3357
  494CHL1  H19C64813  11.945   7.719   2.777  0.4968  2.8591  0.4271
  494CHL1    C164814  11.802   7.960   2.568 -0.4433 -0.2471  0.8542
  494CHL1   H1A64815  11.700   7.946   2.610 -1.3930  0.8839 -0.9279
  494CHL1   H1B64816  11.806   8.071   2.560 -0.0577 -0.2449  1.0405
  494CHL1    C264817  11.803   7.906   2.422  0.4945  0.4096 -0.0298
  494CHL1   H2A64818  11.732   7.966   2.361  0.7103  1.0894  0.3750
  494CHL1   H2B64819  11.784   7.797   2.429  0.1153  0.5626  2.4867
  494CHL1   C2064820  11.872   8.113   3.337  0.2901 -0.2476  0.3569
  494CHL1   H2064821  11.887   8.011   3.378  1.7295 -0.0891  0.2956
  494CHL1   C2164822  11.720   8.121   3.314  0.4778  0.4048 -0.9373
  494CHL1  H21A64823  11.696   8.192   3.232 -2.2711  1.1965  0.4378
  494CHL1  H21B64824  11.671   8.152   3.409 -0.1614  1.2248 -1.5162
  494CHL1  H21C64825  11.680   8.021   3.286 -0.8641 -0.1788  2.5328
  494CHL1   C2264826  11.932   8.208   3.443  0.2552  0.1675 -0.3382
  494CHL1  H22A64827  12.034   8.178   3.477 -0.1592  0.7695  1.5443
  494CHL1  H22B64828  11.945   8.306   3.393  1.3672  1.3502  2.0792
  494CHL1   C2364829  11.844   8.226   3.566  0.6850 -0.1593  0.7411
  494CHL1  H23A64830  11.767   8.298   3.533  0.5100 -0.2689  0.9057
  494CHL1  H23B64831  11.801   8.125   3.584  3.6008 -1.6497  0.0257
  494CHL1   C2464832  11.908   8.283   3.686  0.3318  0.0373 -0.3342
  494CHL1  H24A64833  11.979   8.205   3.722  1.0078  0.7423 -0.1192
  494CHL1  H24B64834  11.967   8.372   3.657  3.2743 -1.9775 -0.9444
  494CHL1   C2564835  11.801   8.316   3.799  0.0183 -0.3294 -0.2692
  494CHL1   H2564836  11.742   8.224   3.818 -0.6594  0.2716  0.5987
  494CHL1   C2664837  11.875   8.356   3.929 -0.8019  0.2798  0.1206
  494CHL1  H26A64838  11.932   8.449   3.907 -1.4079  0.1445 -2.3171
  494CHL1  H26B64839  11.806   8.364   4.015 -0.6139  0.3683  0.2649
  494CHL1  H26C64840  11.948   8.279   3.961 -1.5665  0.0033  1.2316
  494CHL1   C2764841  11.699   8.421   3.765  0.4689  0.1046  0.0652
  494CHL1  H27A64842  11.734   8.523   3.736 -3.9634  1.5877 -0.7717
  494CHL1  H27B64843  11.639   8.384   3.679  0.8494  0.0350 -0.1733
  494CHL1  H27C64844  11.622   8.430   3.845  0.3197 -0.3174 -0.0330
  495CHL1    C364845   6.668   6.854   2.726 -0.2995 -0.4297 -0.2843
  495CHL1    H364846   6.638   6.747   2.738  0.6247 -0.8081 -1.2271
  495CHL1    O364847   6.617   6.902   2.600  0.0238  0.5745  0.1913
  495CHL1   H3'64848   6.663   6.980   2.569  0.8425 -0.0084 -0.0765
  495CHL1    C464849   6.594   6.921   2.847  0.1987 -0.0211 -0.3032
  495CHL1   H4A64850   6.590   7.032   2.853 -2.2115 -0.1491  2.2544
  495CHL1   H4B64851   6.488   6.896   2.828 -0.6306  2.5837  0.5200
  495CHL1    C564852   6.662   6.879   2.977 -0.5184 -0.2754 -0.3167
  495CHL1    C664853   6.584   6.830   3.074 -0.2840 -0.6747  0.4998
  495CHL1    H664854   6.475   6.819   3.061 -0.1390 -3.0184  0.8396
  495CHL1    C764855   6.639   6.791   3.210 -0.1716 -0.2663 -0.4201
  495CHL1   H7A64856   6.571   6.839   3.285 -1.9301 -0.8837 -1.5597
  495CHL1   H7B64857   6.643   6.680   3.211  0.2655 -0.2577  0.2874
  495CHL1    C864858   6.783   6.849   3.236  0.2266  0.0931 -1.1222
  495CHL1    H864859   6.765   6.957   3.253  0.4504 -0.4309  3.9184
  495CHL1   C1464860   6.848   6.789   3.364  0.2028 -0.3802  0.7371
  495CHL1   H1464861   6.866   6.682   3.343 -0.9424 -0.4010 -0.2654
  495CHL1   C1564862   6.765   6.787   3.495 -0.0251  1.0276  0.5521
  495CHL1  H15A64863   6.716   6.884   3.519 -0.0722  0.9194  0.8883
  495CHL1  H15B64864   6.696   6.700   3.497  0.5907  0.3977 -1.8429
  495CHL1   C1664865   6.881   6.765   3.596  0.3805  0.0859  0.8411
  495CHL1  H16A64866   6.884   6.846   3.672 -0.8235  0.8091  0.1461
  495CHL1  H16B64867   6.869   6.668   3.648 -3.7089  0.2190  0.4117
  495CHL1   C1764868   7.016   6.774   3.515 -0.7013  0.2540  0.1060
  495CHL1   H1764869   7.039   6.668   3.491 -0.6179  0.1274  0.7252
  495CHL1   C1364870   6.988   6.845   3.386  0.4408 -0.2221  0.1661
  495CHL1   C1864871   6.981   7.000   3.421  0.2024 -0.0195 -0.5778
  495CHL1  H18A64872   6.934   7.048   3.333  0.7749  0.6269 -0.5362
  495CHL1  H18B64873   6.910   7.012   3.505  2.2861  0.8414  1.1557
  495CHL1  H18C64874   7.079   7.051   3.428 -0.2899  0.7160  1.7439
  495CHL1   C1264875   7.085   6.815   3.268  0.5835  0.2879 -0.3166
  495CHL1  H12A64876   7.184   6.859   3.292  0.2860  0.3206  0.9298
  495CHL1  H12B64877   7.079   6.705   3.251  0.2565  0.4287 -1.1597
  495CHL1   C1164878   7.020   6.876   3.146 -0.1226 -0.8697  0.6893
  495CHL1  H11A64879   7.028   6.985   3.168  1.2430 -0.1117 -2.8382
  495CHL1  H11B64880   7.079   6.848   3.057 -0.5653 -0.5594  0.2933
  495CHL1    C964881   6.870   6.830   3.119 -0.2343 -0.3098 -0.8680
  495CHL1    H964882   6.878   6.720   3.114 -0.1453 -0.6532  3.3155
  495CHL1   C1064883   6.817   6.891   2.985 -0.7121  1.0949 -0.4726
  495CHL1   C1964884   6.856   7.040   2.973 -0.2608  0.1554 -0.3997
  495CHL1  H19A64885   6.966   7.060   2.975 -0.4257  1.0807 -0.2648
  495CHL1  H19B64886   6.822   7.081   2.875 -0.6880 -0.4402 -0.5086
  495CHL1  H19C64887   6.806   7.104   3.048  0.4333  1.4236 -0.9741
  495CHL1    C164888   6.877   6.806   2.865  0.5845 -0.3392 -0.0323
  495CHL1   H1A64889   6.986   6.825   2.874  0.2530  1.6822  0.1661
  495CHL1   H1B64890   6.863   6.699   2.893 -1.0325 -0.3427 -0.7805
  495CHL1    C264891   6.824   6.850   2.722  0.1840  0.0440 -0.6817
  495CHL1   H2A64892   6.858   6.774   2.648 -0.2927 -0.9278  0.0778
  495CHL1   H2B64893   6.856   6.954   2.701  0.5930  0.0753  0.0711
  495CHL1   C2064894   7.129   6.828   3.608  0.0128 -0.7553 -0.7452
  495CHL1   H2064895   7.088   6.919   3.657 -0.1411 -1.7764  1.1111
  495CHL1   C2164896   7.264   6.864   3.544  0.2599 -0.1786 -0.4420
  495CHL1  H21A64897   7.334   6.899   3.623 -0.6599 -1.9354  1.2099
  495CHL1  H21B64898   7.253   6.936   3.460 -1.0956 -0.8826 -0.8994
  495CHL1  H21C64899   7.304   6.779   3.486 -1.2980 -0.5810 -0.9676
  495CHL1   C2264900   7.156   6.725   3.726  0.2255  0.2440 -0.1374
  495CHL1  H22A64901   7.056   6.692   3.760  1.1674 -2.1671  0.4818
  495CHL1  H22B64902   7.216   6.639   3.690  1.1217  0.4224  0.8774
  495CHL1   C2364903   7.222   6.789   3.852  0.4331 -0.4383 -0.2058
  495CHL1  H23A64904   7.330   6.801   3.828  0.6130 -0.5511  0.5338
  495CHL1  H23B64905   7.190   6.894   3.869 -1.0685 -0.9197  0.0836
  495CHL1   C2464906   7.205   6.705   3.983  0.0074 -0.2954 -0.0635
  495CHL1  H24A64907   7.098   6.680   4.000 -0.0888  0.4374  0.4831
  495CHL1  H24B64908   7.260   6.609   3.984 -0.4164 -0.5392  0.0452
  495CHL1   C2564909   7.249   6.779   4.117 -0.0569  0.0246  1.0239
  495CHL1   H2564910   7.353   6.817   4.101  0.4139 -1.6470 -0.1357
  495CHL1   C2664911   7.171   6.906   4.154 -0.5891 -0.6359  0.8811
  495CHL1  H26A64912   7.199   6.943   4.255 -1.0754 -1.0681  1.1781
  495CHL1  H26B64913   7.186   6.978   4.070  1.9473 -2.8855 -0.7689
  495CHL1  H26C64914   7.068   6.867   4.153 -1.3531  1.2543 -0.1532
  495CHL1   C2764915   7.230   6.671   4.231 -0.5687 -0.5120  0.2083
  495CHL1  H27A64916   7.261   6.716   4.329  2.1176  1.0317 -1.2257
  495CHL1  H27B64917   7.303   6.590   4.210 -0.2873 -0.0219 -0.7646
  495CHL1  H27C64918   7.126   6.635   4.228 -0.8746  0.4245 -1.6365
  496CHL1    C364919   8.072   6.382   2.769  0.0917 -0.3484 -0.4312
  496CHL1    H364920   8.044   6.281   2.806  2.8700 -0.6974  0.9205
  496CHL1    O364921   8.028   6.398   2.637 -0.1374 -0.4927  0.0981
  496CHL1   H3'64922   8.068   6.322   2.595 -1.4996 -1.6575  0.8484
  496CHL1    C464923   8.028   6.506   2.846  0.1801 -0.4437 -0.5628
  496CHL1   H4A64924   8.066   6.600   2.800 -0.0486  0.2397  0.5830
  496CHL1   H4B64925   7.919   6.524   2.834  0.2246  0.3529  0.0902
  496CHL1    C564926   8.066   6.501   2.993 -0.3585  0.2931  0.0752
  496CHL1    C664927   7.983   6.490   3.099 -0.1868 -0.2957 -0.6485
  496CHL1    H664928   7.875   6.491   3.076  0.0029 -1.0020 -1.6386
  496CHL1    C764929   8.029   6.494   3.245  0.8996 -0.3784  0.7785
  496CHL1   H7A64930   7.962   6.555   3.310  1.2718  1.0548 -0.1420
  496CHL1   H7B64931   8.016   6.394   3.292 -0.0980 -0.0853  1.1532
  496CHL1    C864932   8.164   6.543   3.268 -0.9461 -0.1365 -0.5720
  496CHL1    H864933   8.160   6.653   3.252 -0.2355  0.0778  0.5602
  496CHL1   C1464934   8.218   6.518   3.415 -0.0157  0.0245  0.8603
  496CHL1   H1464935   8.208   6.411   3.441 -0.3653 -0.0829  0.2992
  496CHL1   C1564936   8.144   6.588   3.529 -0.0705  0.6724  0.3276
  496CHL1  H15A64937   8.121   6.694   3.505  1.3229  0.4971 -2.0626
  496CHL1  H15B64938   8.050   6.541   3.565 -0.0042 -0.2802 -0.6876
  496CHL1   C1664939   8.244   6.582   3.644 -0.4999  0.4633 -0.5930
  496CHL1  H16A64940   8.246   6.676   3.702 -1.0079 -1.3018  2.5147
  496CHL1  H16B64941   8.200   6.512   3.718 -1.1818 -0.6538 -2.0104
  496CHL1   C1764942   8.378   6.532   3.582  0.0967  0.9214 -0.5020
  496CHL1   H1764943   8.387   6.421   3.581  1.2861  0.9941 -2.2047
  496CHL1   C1364944   8.366   6.562   3.433  0.6102  0.7224 -0.5661
  496CHL1   C1864945   8.389   6.713   3.411  0.3661 -0.6490  0.1119
  496CHL1  H18A64946   8.495   6.742   3.421  0.2636  1.4690 -3.2634
  496CHL1  H18B64947   8.358   6.741   3.307 -2.0747 -3.1662  0.0380
  496CHL1  H18C64948   8.329   6.773   3.483  1.1618  2.8793 -1.9165
  496CHL1   C1264949   8.449   6.475   3.341  0.0098 -0.1455  0.3260
  496CHL1  H12A64950   8.557   6.496   3.349  0.0745 -0.4817  0.3766
  496CHL1  H12B64951   8.440   6.368   3.373 -0.1337 -0.3391 -0.3435
  496CHL1   C1164952   8.403   6.496   3.195 -0.0079  0.0330  0.4724
  496CHL1  H11A64953   8.432   6.601   3.173 -0.9451  0.6730  2.1371
  496CHL1  H11B64954   8.467   6.436   3.126  0.1707  1.3578 -0.5648
  496CHL1    C964955   8.258   6.473   3.165  0.2597 -0.3503  0.2816
  496CHL1    H964956   8.253   6.362   3.172  0.2303 -0.5641 -2.2507
  496CHL1   C1064957   8.218   6.497   3.012  0.0739 -0.2488 -0.6231
  496CHL1   C1964958   8.293   6.628   2.962  0.1171 -0.0959 -1.3955
  496CHL1  H19A64959   8.261   6.714   3.025  2.1451  1.2321 -2.0715
  496CHL1  H19B64960   8.403   6.617   2.960  0.1855  0.2184 -4.3898
  496CHL1  H19C64961   8.266   6.654   2.857  0.5424  0.7942 -1.2971
  496CHL1    C164962   8.272   6.379   2.928 -0.1153  0.1834  0.3317
  496CHL1   H1A64963   8.382   6.370   2.924 -0.2475 -1.6945  0.2427
  496CHL1   H1B64964   8.241   6.282   2.972 -0.3855 -0.8374 -1.9692
  496CHL1    C264965   8.226   6.371   2.779 -0.0675  0.1234 -0.5252
  496CHL1   H2A64966   8.257   6.279   2.725 -1.5980 -1.1419  0.6231
  496CHL1   H2B64967   8.265   6.456   2.719 -0.1479  0.2951 -0.3354
  496CHL1   C2064968   8.486   6.596   3.666 -0.3084 -0.3119  0.8398
  496CHL1   H2064969   8.476   6.705   3.646 -3.4913 -0.8675 -1.3534
  496CHL1   C2164970   8.624   6.556   3.620  0.0763  0.2369 -0.3548
  496CHL1  H21A64971   8.660   6.456   3.652  0.7982  0.9981  1.3185
  496CHL1  H21B64972   8.698   6.605   3.687 -0.7275  1.3268 -0.2248
  496CHL1  H21C64973   8.649   6.583   3.515 -2.6868  0.6960 -0.9893
  496CHL1   C2264974   8.471   6.559   3.818 -0.0214 -0.8289 -0.4072
  496CHL1  H22A64975   8.372   6.588   3.859  0.0773 -1.4770  0.3251
  496CHL1  H22B64976   8.484   6.449   3.827  1.0465 -0.6554  0.3487
  496CHL1   C2364977   8.553   6.638   3.913 -0.6230  0.7348  0.4126
  496CHL1  H23A64978   8.657   6.617   3.881 -0.9424  0.8893 -0.7778
  496CHL1  H23B64979   8.539   6.748   3.903  1.4121  0.8697 -1.7425
  496CHL1   C2464980   8.517   6.611   4.062  0.1309 -0.2986 -0.3108
  496CHL1  H24A64981   8.407   6.625   4.070  0.0853  0.4150 -1.8064
  496CHL1  H24B64982   8.536   6.504   4.085 -0.2976 -0.5867 -1.2329
  496CHL1   C2564983   8.576   6.703   4.167 -0.3438 -0.1804  0.1833
  496CHL1   H2564984   8.550   6.808   4.139 -0.1860  0.4772  2.2798
  496CHL1   C2664985   8.520   6.680   4.310  0.5181 -0.0734  0.1865
  496CHL1  H26A64986   8.549   6.578   4.345  1.1043 -0.1076 -0.3783
  496CHL1  H26B64987   8.549   6.753   4.388  1.0896  1.2945 -1.2564
  496CHL1  H26C64988   8.409   6.685   4.301  0.6930 -0.4238 -3.3905
  496CHL1   C2764989   8.729   6.688   4.178 -0.3694  0.2981 -0.0706
  496CHL1  H27A64990   8.773   6.756   4.254  1.1145  0.3562 -0.9381
  496CHL1  H27B64991   8.773   6.589   4.203  0.4690  0.9677  1.2060
  496CHL1  H27C64992   8.771   6.714   4.078 -1.1530  0.8137 -0.2809
  497CHL1    C364993   2.760   8.326   2.409 -0.3955  0.5129  0.5173
  497CHL1    H364994   2.711   8.228   2.392  0.6908  0.3227 -1.9031
  497CHL1    O364995   2.840   8.329   2.288  0.2545 -0.0090 -0.0576
  497CHL1   H3'64996   2.873   8.241   2.265  0.4806 -0.2389  1.0623
  497CHL1    C464997   2.661   8.443   2.415 -0.6989  0.4979  0.2899
  497CHL1   H4A64998   2.730   8.530   2.407 -0.2136  0.0235 -1.0150
  497CHL1   H4B64999   2.590   8.435   2.329 -0.4515 -2.2418  0.2453
  497CHL1    C565000   2.583   8.452   2.549 -1.0564 -0.4827  0.3509
  497CHL1    C665001   2.448   8.454   2.540 -0.4082 -0.4026 -0.6640
  497CHL1    H665002   2.404   8.458   2.440  0.8805 -1.2860 -1.2948
  497CHL1    C765003   2.360   8.466   2.666  0.0462  0.3530 -0.1315
  497CHL1   H7A65004   2.281   8.544   2.659 -1.5136 -1.2153 -0.7243
  497CHL1   H7B65005   2.311   8.366   2.675 -1.4603  1.1327  0.7156
  497CHL1    C865006   2.441   8.482   2.793  0.4419  0.0902 -0.2135
  497CHL1    H865007   2.469   8.589   2.803 -0.3881  0.2973 -0.1053
  497CHL1   C1465008   2.361   8.448   2.921  0.0566  0.1157  0.0367
  497CHL1   H1465009   2.339   8.341   2.900  1.0537  0.0055 -0.5047
  497CHL1   C1565010   2.216   8.504   2.937  0.2252  0.2737  0.3587
  497CHL1  H15A65011   2.207   8.614   2.926 -0.3048  0.2563  0.6137
  497CHL1  H15B65012   2.146   8.451   2.869 -1.9160  1.0104  1.8917
  497CHL1   C1665013   2.177   8.472   3.085  0.7681 -0.2753  0.4940
  497CHL1  H16A65014   2.148   8.562   3.144  0.3568 -0.3074  0.3473
  497CHL1  H16B65015   2.087   8.408   3.073  1.0874 -0.9049  1.3483
  497CHL1   C1765016   2.303   8.402   3.152  0.0673 -0.4177 -0.2653
  497CHL1   H1765017   2.302   8.294   3.126  3.5349 -0.1919 -1.8302
  497CHL1   C1365018   2.421   8.447   3.062  0.7977 -0.0105  0.0782
  497CHL1   C1865019   2.450   8.594   3.110 -0.1079  0.6721 -0.4759
  497CHL1  H18A65020   2.362   8.661   3.110  0.4750  1.4580 -0.6754
  497CHL1  H18B65021   2.488   8.597   3.215  1.4512 -0.1851 -0.9767
  497CHL1  H18C65022   2.536   8.633   3.050  0.6873  0.4568  0.4873
  497CHL1   C1265023   2.546   8.359   3.051 -0.2587  0.2930 -0.2302
  497CHL1  H12A65024   2.594   8.362   3.152 -1.0502  2.5589  0.1359
  497CHL1  H12B65025   2.499   8.260   3.029  0.5498 -0.3105  0.6885
  497CHL1   C1165026   2.645   8.388   2.937 -0.2764  0.2276  0.9433
  497CHL1  H11A65027   2.685   8.487   2.964 -0.9096  0.1463  2.2671
  497CHL1  H11B65028   2.719   8.305   2.938 -0.5212  0.0024  1.8442
  497CHL1    C965029   2.569   8.393   2.796  0.2109 -0.0203  0.1764
  497CHL1    H965030   2.540   8.290   2.766  0.8608 -0.7280  1.8427
  497CHL1   C1065031   2.664   8.436   2.678  0.3433 -0.4252  0.1704
  497CHL1   C1965032   2.728   8.574   2.705 -0.0776  0.1228  0.8532
  497CHL1  H19A65033   2.794   8.581   2.795 -0.4999 -2.0154  1.3676
  497CHL1  H19B65034   2.784   8.603   2.614 -0.3373 -0.8834  0.3596
  497CHL1  H19C65035   2.659   8.660   2.714 -1.4823 -0.7682 -0.9655
  497CHL1    C165036   2.773   8.329   2.663  0.3571 -0.1356  0.0324
  497CHL1   H1A65037   2.847   8.327   2.745 -0.3885 -0.0030  0.7235
  497CHL1   H1B65038   2.722   8.231   2.668  1.4962 -0.6612  2.2886
  497CHL1    C265039   2.848   8.325   2.530 -0.5949  0.1255  0.3949
  497CHL1   H2A65040   2.917   8.239   2.517 -0.1705  0.7998 -2.5838
  497CHL1   H2B65041   2.920   8.407   2.509  1.2495 -1.6706 -0.6227
  497CHL1   C2065042   2.298   8.420   3.302  0.9599 -0.3535 -0.2792
  497CHL1   H2065043   2.293   8.530   3.316  1.3671 -0.1298 -1.7226
  497CHL1   C2165044   2.422   8.353   3.354  0.2018  0.0631  0.3216
  497CHL1  H21A65045   2.433   8.252   3.310  1.0662  1.2300 -2.3261
  497CHL1  H21B65046   2.415   8.337   3.464 -0.2048 -1.0186  0.1504
  497CHL1  H21C65047   2.513   8.413   3.334 -0.6854  0.9268 -1.2381
  497CHL1   C2265048   2.174   8.343   3.364  0.0494  0.1377 -0.3295
  497CHL1  H22A65049   2.081   8.395   3.331  0.2524  2.0240  1.7926
  497CHL1  H22B65050   2.164   8.240   3.326  0.8111  0.4589 -1.4455
  497CHL1   C2365051   2.163   8.339   3.520 -0.2368 -0.2258 -0.5152
  497CHL1  H23A65052   2.068   8.284   3.537 -0.3638 -0.6410 -2.3432
  497CHL1  H23B65053   2.248   8.280   3.560  0.5316  1.3804  0.3253
  497CHL1   C2465054   2.151   8.479   3.581  0.0821  0.4784  0.0125
  497CHL1  H24A65055   2.238   8.545   3.563 -1.2033  2.5968  1.1674
  497CHL1  H24B65056   2.060   8.528   3.539  0.4271 -1.2717 -3.1619
  497CHL1   C2565057   2.132   8.476   3.734 -0.4963 -0.0759 -0.1870
  497CHL1   H2565058   2.037   8.422   3.755  0.3541 -0.5556  2.7635
  497CHL1   C2665059   2.250   8.413   3.802 -0.2397 -0.3834  0.2272
  497CHL1  H26A65060   2.270   8.305   3.786 -2.9605 -0.8316 -0.6316
  497CHL1  H26B65061   2.343   8.469   3.777  0.2466 -1.3457 -0.1908
  497CHL1  H26C65062   2.232   8.424   3.911  1.4709 -0.1308  0.5244
  497CHL1   C2765063   2.103   8.621   3.782  0.4447  0.0051 -0.4175
  497CHL1  H27A65064   2.174   8.695   3.739 -1.7016  1.9115 -0.9179
  497CHL1  H27B65065   1.999   8.652   3.755 -0.0153 -0.5774  0.6274
  497CHL1  H27C65066   2.115   8.632   3.891  0.2272 -0.9044 -0.2920
  498CHL1    C365067  10.167  10.811   2.293  0.2775  0.2166  0.3918
  498CHL1    H365068  10.069  10.766   2.316  1.2150 -1.7717  0.7554
  498CHL1    O365069  10.209  10.809   2.155  0.1276 -0.9762 -0.4598
  498CHL1   H3'65070  10.288  10.864   2.153 -0.8536  0.4988 -1.5898
  498CHL1    C465071  10.152  10.959   2.344 -0.3685  0.1279  0.7752
  498CHL1   H4A65072  10.256  10.998   2.335  0.7429 -2.7382 -0.1527
  498CHL1   H4B65073  10.081  11.013   2.279  1.3518  0.8942 -0.5431
  498CHL1    C565074  10.116  10.958   2.494  0.0177  0.0952 -0.0138
  498CHL1    C665075  10.005  11.014   2.539  0.3012 -0.3055  1.1324
  498CHL1    H665076   9.935  11.058   2.467 -1.1479 -2.5767  1.0139
  498CHL1    C765077   9.962  11.021   2.682  0.1541 -0.1348 -0.1878
  498CHL1   H7A65078   9.910  11.117   2.700 -0.0082 -0.0470 -1.0965
  498CHL1   H7B65079   9.879  10.948   2.695 -0.7484  0.8020 -0.5584
  498CHL1    C865080  10.067  10.988   2.786 -0.7172  0.3110 -0.0774
  498CHL1    H865081  10.131  11.078   2.793  0.5642 -0.5362 -0.5504
  498CHL1   C1465082  10.004  10.943   2.916  0.7604 -0.5535  0.3197
  498CHL1   H1465083   9.943  10.854   2.892 -0.5484  0.2315  0.6280
  498CHL1   C1565084   9.898  11.041   2.980  0.0675  0.0075  0.3723
  498CHL1  H15A65085   9.919  11.150   2.976  0.9304 -0.1161  1.1250
  498CHL1  H15B65086   9.801  11.028   2.929  1.0856 -3.3133 -0.9478
  498CHL1   C1665087   9.893  10.999   3.129  0.1571 -0.8003 -0.0050
  498CHL1  H16A65088   9.921  11.086   3.192 -1.9084 -1.4786  2.0157
  498CHL1  H16B65089   9.789  10.971   3.158  0.0382  1.7719  2.4836
  498CHL1   C1765090   9.996  10.892   3.147 -0.5931  1.1686 -0.4001
  498CHL1   H1765091   9.938  10.797   3.139  1.7739 -0.3587 -0.6608
  498CHL1   C1365092  10.096  10.917   3.030 -0.4657  1.1726 -0.6146
  498CHL1   C1865093  10.186  11.028   3.081 -0.5941 -0.1251  0.2406
  498CHL1  H18A65094  10.245  11.069   2.996  1.3745 -0.1146  1.5403
  498CHL1  H18B65095  10.141  11.111   3.139  2.3716  1.6771  0.1864
  498CHL1  H18C65096  10.267  10.994   3.150  1.0592  0.4725 -1.3359
  498CHL1   C1265097  10.188  10.799   2.979 -0.0455  0.0600  0.6455
  498CHL1  H12A65098  10.269  10.767   3.047  0.1475 -1.4610 -0.2651
  498CHL1  H12B65099  10.113  10.717   2.970  0.1873 -0.2441  1.4171
  498CHL1   C1165100  10.256  10.819   2.839  0.8117  0.1779 -0.2386
  498CHL1  H11A65101  10.342  10.889   2.834 -0.1006  1.2769 -1.0318
  498CHL1  H11B65102  10.301  10.720   2.817 -0.5242 -1.1327  2.4983
  498CHL1    C965103  10.152  10.865   2.732 -0.4760  0.0252  0.1443
  498CHL1    H965104  10.084  10.778   2.725  1.8791 -2.1205  2.2536
  498CHL1   C1065105  10.214  10.880   2.583 -0.7998 -0.1011  0.1909
  498CHL1   C1965106  10.351  10.964   2.595  0.1846  0.3944  0.5223
  498CHL1  H19A65107  10.438  10.916   2.645  0.8989  0.6778 -0.4071
  498CHL1  H19B65108  10.380  10.992   2.491 -1.3835 -1.2909 -0.4176
  498CHL1  H19C65109  10.329  11.049   2.663 -2.0579 -1.0167  1.6672
  498CHL1    C165110  10.245  10.742   2.529  0.2165  0.0386  0.2024
  498CHL1   H1A65111  10.330  10.696   2.582 -0.4199  1.8056  2.9920
  498CHL1   H1B65112  10.155  10.678   2.541 -0.6193  0.9893 -0.7064
  498CHL1    C265113  10.275  10.735   2.379 -0.1103  0.1372  0.5250
  498CHL1   H2A65114  10.279  10.632   2.337 -1.2585  0.8835 -1.5923
  498CHL1   H2B65115  10.370  10.787   2.356  0.7494 -1.8726 -0.6824
  498CHL1   C2065116  10.049  10.893   3.293 -0.4696  0.6122  0.0775
  498CHL1   H2065117  10.120  10.977   3.309  0.7168 -0.1579 -0.9361
  498CHL1   C2165118  10.131  10.768   3.320 -0.1978  0.5581  0.3979
  498CHL1  H21A65119  10.066  10.680   3.342  0.8759 -0.4783 -0.4054
  498CHL1  H21B65120  10.207  10.771   3.401 -0.9555 -1.7916  1.2659
  498CHL1  H21C65121  10.187  10.740   3.228 -1.4361  2.4073 -0.9885
  498CHL1   C2265122   9.931  10.907   3.404 -0.8567  0.1467  0.3546
  498CHL1  H22A65123   9.875  11.000   3.381 -1.0287 -0.2506 -0.9454
  498CHL1  H22B65124   9.861  10.821   3.398 -2.3817  1.4050 -0.5584
  498CHL1   C2365125   9.987  10.905   3.549 -0.0469  0.3538 -0.1590
  498CHL1  H23A65126  10.041  10.812   3.579  0.9612  1.5269  1.9216
  498CHL1  H23B65127  10.056  10.991   3.561 -1.4307  1.4969 -0.2068
  498CHL1   C2465128   9.874  10.915   3.657  0.1892  0.4012  0.8088
  498CHL1  H24A65129   9.822  11.013   3.646 -0.4655  0.2841  2.5674
  498CHL1  H24B65130   9.789  10.846   3.640 -0.3538  1.3096 -0.3334
  498CHL1   C2565131   9.925  10.904   3.801  0.0276  0.5235  0.2822
  498CHL1   H2565132   9.969  10.804   3.819  0.9649  1.1194  1.4669
  498CHL1   C2665133  10.025  11.006   3.845  0.3549  0.1094 -0.6649
  498CHL1  H26A65134  10.031  10.998   3.956 -0.1896 -0.3127 -0.6596
  498CHL1  H26B65135  10.122  10.987   3.795  0.8053 -2.3474  0.9570
  498CHL1  H26C65136   9.980  11.106   3.826 -0.0649 -0.2713 -1.7065
  498CHL1   C2765137   9.805  10.912   3.901  0.9391  0.1716 -0.0719
  498CHL1  H27A65138   9.725  10.839   3.877 -0.1744  1.5776 -0.7567
  498CHL1  H27B65139   9.839  10.885   4.003  0.8053  0.5533  0.0738
  498CHL1  H27C65140   9.744  11.004   3.904 -0.6375 -0.8769  1.7425
  499CHL1    C365141   5.730   3.155   2.440 -0.0325  0.4485  0.4133
  499CHL1    H365142   5.620   3.142   2.447 -0.0714  1.3502  2.1621
  499CHL1    O365143   5.777   3.124   2.315  0.0682 -0.2183  0.2710
  499CHL1   H3'65144   5.870   3.110   2.333  0.3465  0.6879 -0.3419
  499CHL1    C465145   5.772   3.300   2.474 -0.5854  0.6228  0.2902
  499CHL1   H4A65146   5.883   3.302   2.464 -0.2057  0.3049  3.4099
  499CHL1   H4B65147   5.724   3.369   2.401 -0.1247  0.2048 -0.4160
  499CHL1    C565148   5.749   3.338   2.618  0.7340  0.0288 -1.0572
  499CHL1    C665149   5.694   3.460   2.648 -0.0887 -0.9527 -0.6588
  499CHL1    H665150   5.664   3.534   2.572 -0.3737  1.3645  1.5776
  499CHL1    C765151   5.681   3.513   2.790  0.0674  0.0140  0.1622
  499CHL1   H7A65152   5.721   3.617   2.791 -0.9706  0.4230  0.7987
  499CHL1   H7B65153   5.574   3.507   2.817 -0.2724  1.9446 -0.5555
  499CHL1    C865154   5.755   3.431   2.894 -0.3814 -0.2453 -0.5799
  499CHL1    H865155   5.859   3.469   2.882 -1.0885  1.5991 -1.0975
  499CHL1   C1465156   5.699   3.458   3.033 -0.3650  0.4076 -0.3527
  499CHL1   H1465157   5.594   3.422   3.034  0.0355 -0.8982 -1.5719
  499CHL1   C1565158   5.681   3.603   3.075  0.3545 -0.2819  0.0096
  499CHL1  H15A65159   5.769   3.663   3.043 -0.4338  0.8822 -0.0350
  499CHL1  H15B65160   5.594   3.640   3.017  0.6905 -2.0115 -1.6851
  499CHL1   C1665161   5.660   3.587   3.224  0.0157 -0.5811  0.4234
  499CHL1  H16A65162   5.725   3.656   3.283  1.1602 -1.7640  0.5901
  499CHL1  H16B65163   5.552   3.595   3.250  0.1794 -1.0430  1.2864
  499CHL1   C1765164   5.692   3.439   3.268 -0.4813 -0.5925 -0.5978
  499CHL1   H1765165   5.594   3.387   3.278 -1.6460  1.5247 -0.3950
  499CHL1   C1365166   5.771   3.386   3.153 -0.4649 -0.1314  0.5722
  499CHL1   C1865167   5.917   3.424   3.152  0.0914  0.9005  0.0265
  499CHL1  H18A65168   5.959   3.418   3.050 -0.9364  0.0456 -0.3622
  499CHL1  H18B65169   5.937   3.531   3.174  1.9144  0.6463 -0.2239
  499CHL1  H18C65170   5.986   3.367   3.217 -0.2193  2.4941  1.8583
  499CHL1   C1265171   5.755   3.236   3.125 -0.3601  0.1325  0.1001
  499CHL1  H12A65172   5.804   3.184   3.210  1.2237  0.6083 -0.4923
  499CHL1  H12B65173   5.646   3.213   3.119 -0.1795 -0.6837 -0.0812
  499CHL1   C1165174   5.819   3.202   2.991  0.7915 -0.2384 -0.3784
  499CHL1  H11A65175   5.928   3.225   2.986  1.0530 -1.0298  1.0116
  499CHL1  H11B65176   5.794   3.095   2.976 -3.0411  0.4436  0.1180
  499CHL1    C965177   5.755   3.284   2.875  0.4434  0.1819 -0.0588
  499CHL1    H965178   5.647   3.260   2.887  0.6195 -0.8360 -0.3795
  499CHL1   C1065179   5.800   3.245   2.730 -0.0535 -0.7492 -0.1481
  499CHL1   C1965180   5.957   3.250   2.735  1.0241  0.7616 -0.0774
  499CHL1  H19A65181   5.992   3.240   2.629 -1.7424  1.0314 -1.0878
  499CHL1  H19B65182   5.997   3.341   2.785  1.1176 -0.0339  1.3351
  499CHL1  H19C65183   5.989   3.166   2.800  2.2730  1.5273  0.3291
  499CHL1    C165184   5.758   3.104   2.692 -0.5284  0.4917 -0.3657
  499CHL1   H1A65185   5.804   3.026   2.756 -1.5605  0.2876  0.1498
  499CHL1   H1B65186   5.648   3.094   2.703 -0.5525 -5.1866 -2.5392
  499CHL1    C265187   5.790   3.062   2.547  0.2995 -0.0116 -0.9386
  499CHL1   H2A65188   5.755   2.959   2.525 -0.7882 -0.0555  0.8186
  499CHL1   H2B65189   5.901   3.057   2.552  0.2955  0.3692 -0.2896
  499CHL1   C2065190   5.755   3.434   3.408 -0.8309 -0.0182 -0.2595
  499CHL1   H2065191   5.851   3.489   3.405 -0.3361 -0.9143 -2.4923
  499CHL1   C2165192   5.783   3.290   3.450  0.7568  0.7093 -0.9377
  499CHL1  H21A65193   5.828   3.304   3.551 -1.1851 -1.5089  0.3463
  499CHL1  H21B65194   5.864   3.240   3.393  0.6166  0.2243 -0.7231
  499CHL1  H21C65195   5.695   3.224   3.466  0.8494  1.0893  1.5991
  499CHL1   C2265196   5.660   3.496   3.506  0.1657  0.8688 -0.3723
  499CHL1  H22A65197   5.625   3.593   3.464 -1.3621 -0.3120 -1.9604
  499CHL1  H22B65198   5.564   3.441   3.502  1.4653 -1.7992  1.5666
  499CHL1   C2365199   5.705   3.526   3.651 -0.2001  0.0364 -0.1983
  499CHL1  H23A65200   5.727   3.429   3.702  2.3100 -0.1868 -1.6020
  499CHL1  H23B65201   5.806   3.572   3.655 -0.3112  0.3248 -0.6620
  499CHL1   C2465202   5.600   3.614   3.727 -0.2684  0.5151  0.3704
  499CHL1  H24A65203   5.594   3.715   3.680  3.5009 -0.6266 -3.2563
  499CHL1  H24B65204   5.498   3.574   3.711 -0.1783  0.2046  0.5661
  499CHL1   C2565205   5.617   3.619   3.881 -0.5304  0.2407  0.1139
  499CHL1   H2565206   5.722   3.653   3.890 -0.7023  0.5723  0.9311
  499CHL1   C2665207   5.515   3.715   3.936 -0.1568 -0.3651 -0.3041
  499CHL1  H26A65208   5.420   3.723   3.880 -0.6752  1.6688  0.7443
  499CHL1  H26B65209   5.489   3.677   4.037 -2.1315 -0.1629 -0.6950
  499CHL1  H26C65210   5.562   3.816   3.949 -0.6225  0.1621 -2.4089
  499CHL1   C2765211   5.615   3.487   3.959 -0.2109  0.2955 -0.0651
  499CHL1  H27A65212   5.509   3.455   3.963 -0.6295  1.2757 -2.0997
  499CHL1  H27B65213   5.677   3.408   3.911  0.8517  1.1285 -0.1089
  499CHL1  H27C65214   5.639   3.496   4.068 -3.5774 -0.1577  0.8144
  500CHL1    C365215   7.275   2.113   2.921 -0.0954 -0.4924  0.2153
  500CHL1    H365216   7.301   2.010   2.955 -1.8411 -1.1547 -0.3362
  500CHL1    O365217   7.200   2.106   2.801  0.0772  0.1274  0.2259
  500CHL1   H3'65218   7.124   2.052   2.823  0.0077 -0.4570 -1.3369
  500CHL1    C465219   7.176   2.173   3.017 -0.0488 -0.2466 -0.0337
  500CHL1   H4A65220   7.149   2.274   2.982  1.4263  0.0182 -0.4933
  500CHL1   H4B65221   7.085   2.109   3.021  0.3315 -0.7853  0.1350
  500CHL1    C565222   7.231   2.198   3.154  0.0213  0.9506 -0.1641
  500CHL1    C665223   7.173   2.147   3.262  0.1853 -0.5574 -0.3743
  500CHL1    H665224   7.083   2.083   3.261 -0.4011  0.2411 -0.0367
  500CHL1    C765225   7.200   2.187   3.404 -0.4906  0.1811  0.7327
  500CHL1   H7A65226   7.112   2.197   3.472 -0.2859  0.5321  0.9486
  500CHL1   H7B65227   7.258   2.106   3.453  1.8155  1.2716 -0.0553
  500CHL1    C865228   7.292   2.312   3.404  0.4189  0.1432 -0.4472
  500CHL1    H865229   7.232   2.400   3.371 -0.7679 -0.0581  1.0953
  500CHL1   C1465230   7.353   2.326   3.542  0.4972  0.0365 -0.0727
  500CHL1   H1465231   7.406   2.232   3.564 -0.6116 -0.3485  1.0750
  500CHL1   C1565232   7.251   2.340   3.661 -0.2029  0.0220 -0.2732
  500CHL1  H15A65233   7.161   2.398   3.632 -1.5400 -2.6940 -1.9008
  500CHL1  H15B65234   7.200   2.245   3.686 -1.6942  0.2321 -2.3029
  500CHL1   C1665235   7.325   2.406   3.776 -0.4469  0.1221 -0.2427
  500CHL1  H16A65236   7.268   2.494   3.810 -1.7698 -0.6344 -0.4474
  500CHL1  H16B65237   7.332   2.345   3.868  1.4561  3.2000  1.8354
  500CHL1   C1765238   7.469   2.436   3.720 -0.0843  0.0150  0.1294
  500CHL1   H1765239   7.540   2.352   3.737  0.8463  0.5255 -1.0825
  500CHL1   C1365240   7.451   2.438   3.560 -0.1953 -0.7034 -0.7937
  500CHL1   C1865241   7.379   2.579   3.527 -0.0718 -0.1198  0.5507
  500CHL1  H18A65242   7.455   2.659   3.515 -1.6873  1.3451 -0.2625
  500CHL1  H18B65243   7.334   2.575   3.426  0.4423 -1.3179  0.3522
  500CHL1  H18C65244   7.302   2.613   3.599 -2.8564  0.3326 -2.4034
  500CHL1   C1265245   7.575   2.420   3.468  0.4385 -0.2136 -0.8714
  500CHL1  H12A65246   7.645   2.505   3.470  1.5318 -1.1081  0.2081
  500CHL1  H12B65247   7.616   2.326   3.513  0.2528  0.3850  0.6250
  500CHL1   C1165248   7.526   2.402   3.324 -0.3106  0.2023 -0.1567
  500CHL1  H11A65249   7.496   2.507   3.300 -1.3267 -0.2811 -1.0784
  500CHL1  H11B65250   7.613   2.387   3.256 -0.7330 -0.6471 -0.5193
  500CHL1    C965251   7.408   2.301   3.303 -0.3688  0.0893 -0.2482
  500CHL1    H965252   7.457   2.203   3.323  0.3952  1.0192  2.9871
  500CHL1   C1065253   7.352   2.298   3.160  0.7668 -0.2735  0.2455
  500CHL1   C1965254   7.295   2.438   3.118 -0.0336  0.9805 -0.1517
  500CHL1  H19A65255   7.202   2.469   3.171  0.0731  0.8935  0.0899
  500CHL1  H19B65256   7.375   2.515   3.129 -0.7616  1.6780  0.3737
  500CHL1  H19C65257   7.271   2.439   3.010  0.3501  0.2788 -0.2469
  500CHL1    C165258   7.459   2.254   3.050 -0.0090 -0.1514 -0.5667
  500CHL1   H1A65259   7.535   2.333   3.038  1.0716 -0.6756  2.0300
  500CHL1   H1B65260   7.508   2.168   3.101 -0.6706 -0.6225 -0.7196
  500CHL1    C265261   7.402   2.208   2.909 -0.3658  0.2469  0.0708
  500CHL1   H2A65262   7.487   2.157   2.859 -0.2350 -1.1061  1.6109
  500CHL1   H2B65263   7.371   2.297   2.850  0.1545  0.2757 -0.1657
  500CHL1   C2065264   7.543   2.556   3.790  0.8595 -0.2463  0.6953
  500CHL1   H2065265   7.485   2.649   3.771 -0.1921 -0.3546  3.0394
  500CHL1   C2165266   7.678   2.580   3.734  0.3533  0.0671 -0.1746
  500CHL1  H21A65267   7.738   2.492   3.702 -1.1970 -0.2900 -2.3400
  500CHL1  H21B65268   7.736   2.631   3.813 -1.0261 -1.4257  1.9134
  500CHL1  H21C65269   7.672   2.646   3.645 -1.2328  1.6393  1.0367
  500CHL1   C2265270   7.551   2.530   3.946 -0.0665 -0.1046  0.2789
  500CHL1  H22A65271   7.578   2.632   3.982 -0.4747  0.5834 -1.3186
  500CHL1  H22B65272   7.449   2.508   3.982  0.2105 -0.5970  0.7966
  500CHL1   C2365273   7.648   2.416   3.980  0.6318  0.1076  0.3715
  500CHL1  H23A65274   7.612   2.321   3.935  1.7298 -0.7051  1.1695
  500CHL1  H23B65275   7.747   2.443   3.939  0.5293  2.0295  1.3042
  500CHL1   C2465276   7.661   2.398   4.127 -0.3237  0.4230 -0.0266
  500CHL1  H24A65277   7.687   2.501   4.158 -0.3366  0.4446 -0.0891
  500CHL1  H24B65278   7.565   2.364   4.173  0.1085 -2.2878 -0.9688
  500CHL1   C2565279   7.779   2.309   4.175  0.0628 -0.6056  0.0582
  500CHL1   H2565280   7.862   2.337   4.107 -3.1008  1.0305 -3.4920
  500CHL1   C2665281   7.802   2.322   4.326  0.5612 -0.2271 -1.5712
  500CHL1  H26A65282   7.895   2.269   4.354 -0.5256 -1.0405  0.7779
  500CHL1  H26B65283   7.813   2.430   4.350  0.4053 -0.2634 -1.3267
  500CHL1  H26C65284   7.717   2.287   4.389  2.3792  1.0716  1.8769
  500CHL1   C2765285   7.750   2.164   4.145 -0.1289  0.1313  0.1586
  500CHL1  H27A65286   7.663   2.147   4.213 -1.6243 -1.3065 -1.9926
  500CHL1  H27B65287   7.722   2.135   4.042  2.9843 -0.9716 -0.4880
  500CHL1  H27C65288   7.826   2.096   4.189 -1.1840  0.2676  2.3486
  501CHL1    C365289   7.888  12.150   3.024 -0.0689 -0.5844  0.2469
  501CHL1    H365290   7.811  12.224   2.996 -0.2086 -0.7053  0.3070
  501CHL1    O365291   7.914  12.079   2.900  0.3569 -0.1355 -0.5323
  501CHL1   H3'65292   7.911  11.984   2.918  0.3006 -0.0944 -0.3202
  501CHL1    C465293   8.023  12.209   3.075  0.1181  0.4108  0.1763
  501CHL1   H4A65294   8.095  12.125   3.088 -0.2519  0.0770  0.0664
  501CHL1   H4B65295   8.074  12.273   3.000  2.3297  0.8125  1.9048
  501CHL1    C565296   8.002  12.287   3.200 -0.1706 -0.4868  0.4105
  501CHL1    C665297   8.014  12.420   3.190 -0.1864 -0.0576 -1.2535
  501CHL1    H665298   8.058  12.464   3.100  4.2734 -2.0411 -0.3028
  501CHL1    C765299   7.982  12.515   3.302  0.9474 -0.4900 -0.4590
  501CHL1   H7A65300   8.072  12.580   3.307 -0.6468  1.8099  0.0294
  501CHL1   H7B65301   7.898  12.581   3.270 -0.3873 -0.7397  2.2427
  501CHL1    C865302   7.964  12.436   3.436 -0.1217 -0.1881  0.2063
  501CHL1    H865303   8.063  12.393   3.460 -0.3154 -1.1909 -0.6993
  501CHL1   C1465304   7.910  12.538   3.537  0.0023 -0.0118  0.4741
  501CHL1   H1465305   7.816  12.572   3.488  1.0259  2.4353  0.0704
  501CHL1   C1565306   7.997  12.653   3.576  0.1574 -0.9054 -0.1941
  501CHL1  H15A65307   8.104  12.622   3.577  1.1245  2.1054 -1.3105
  501CHL1  H15B65308   8.002  12.745   3.515  0.9375 -0.6458  0.2460
  501CHL1   C1665309   7.944  12.691   3.721 -0.4802  0.2161  0.9431
  501CHL1  H16A65310   8.031  12.662   3.785  1.3184  0.4529 -1.2579
  501CHL1  H16B65311   7.922  12.799   3.727 -2.2719 -0.1805  2.5435
  501CHL1   C1765312   7.822  12.600   3.752  0.3413 -0.0828  0.2171
  501CHL1   H1765313   7.726  12.635   3.710 -0.2024 -1.8422 -0.1017
  501CHL1   C1365314   7.852  12.471   3.673 -0.2478 -1.2771  0.2311
  501CHL1   C1865315   7.968  12.394   3.738  0.9430 -0.1497  0.2736
  501CHL1  H18A65316   8.060  12.454   3.746  1.5404 -1.0353  0.2087
  501CHL1  H18B65317   7.926  12.356   3.834 -1.8983  0.0399 -0.7809
  501CHL1  H18C65318   7.993  12.302   3.681 -0.6146 -0.4138 -0.0328
  501CHL1   C1265319   7.734  12.378   3.639  0.0429  0.5755  0.6101
  501CHL1  H12A65320   7.693  12.316   3.722  0.2570  1.5660  1.4733
  501CHL1  H12B65321   7.655  12.436   3.587 -0.6032 -2.1424 -1.7182
  501CHL1   C1165322   7.786  12.274   3.530 -0.2869  0.1945 -1.0316
  501CHL1  H11A65323   7.838  12.201   3.596 -1.6055 -1.4157 -1.6981
  501CHL1  H11B65324   7.697  12.225   3.486  1.6003 -1.9718 -2.6878
  501CHL1    C965325   7.861  12.324   3.406 -0.3995  0.4515  0.0712
  501CHL1    H965326   7.785  12.378   3.346  0.2279  1.0092 -0.2411
  501CHL1   C1065327   7.920  12.215   3.313 -0.2573 -0.1926 -0.3732
  501CHL1   C1965328   8.004  12.115   3.398 -0.2836  0.3475  0.3255
  501CHL1  H19A65329   8.090  12.168   3.445  0.7882 -2.0572  1.2436
  501CHL1  H19B65330   7.940  12.069   3.475 -1.0933  2.3109  0.8801
  501CHL1  H19C65331   8.051  12.039   3.332  1.0139 -0.2454  1.8545
  501CHL1    C165332   7.802  12.139   3.251 -0.2549 -0.6332  0.3140
  501CHL1   H1A65333   7.755  12.071   3.325 -1.3772  1.0532  1.2236
  501CHL1   H1B65334   7.720  12.211   3.231  0.5210  0.4454  0.9320
  501CHL1    C265335   7.831  12.056   3.127  0.6580  0.5740  0.6202
  501CHL1   H2A65336   7.742  12.002   3.092  1.0767  0.0919  0.2904
  501CHL1   H2B65337   7.903  11.979   3.161 -0.7142 -1.0013  0.0539
  501CHL1   C2065338   7.815  12.580   3.902  0.3717 -0.6252 -0.4848
  501CHL1   H2065339   7.911  12.538   3.938  0.8543  1.8872  1.4268
  501CHL1   C2165340   7.698  12.502   3.950  0.2553  0.4150  0.5391
  501CHL1  H21A65341   7.703  12.485   4.059 -0.6354 -0.2800  0.4805
  501CHL1  H21B65342   7.693  12.400   3.906 -0.4247  1.1242 -1.1200
  501CHL1  H21C65343   7.603  12.557   3.931 -0.4950 -1.3147 -1.0060
  501CHL1   C2265344   7.825  12.715   3.986  0.1717  0.2807 -0.1891
  501CHL1  H22A65345   7.922  12.767   3.970 -0.1635  1.0065  0.0839
  501CHL1  H22B65346   7.746  12.787   3.955 -1.1551 -1.1944 -0.3943
  501CHL1   C2365347   7.806  12.687   4.140  0.2530  0.3474 -0.2047
  501CHL1  H23A65348   7.699  12.664   4.160  0.1926  0.4145 -0.4395
  501CHL1  H23B65349   7.863  12.596   4.167  0.8012  0.2855 -1.5030
  501CHL1   C2465350   7.844  12.799   4.230  0.1524 -0.0640  0.0737
  501CHL1  H24A65351   7.951  12.829   4.221 -0.4474  2.3447  0.1010
  501CHL1  H24B65352   7.790  12.888   4.191  2.3131 -0.0675 -3.3297
  501CHL1   C2565353   7.819  12.775   4.377  0.2322  0.8732 -0.4020
  501CHL1   H2565354   7.719  12.729   4.389  1.1407 -1.0828  0.2287
  501CHL1   C2665355   7.910  12.665   4.448  0.1315 -0.4301  0.1006
  501CHL1  H26A65356   7.908  12.686   4.557 -0.8469 -1.8066  0.3634
  501CHL1  H26B65357   7.850  12.573   4.431  0.4213 -0.3923 -1.2127
  501CHL1  H26C65358   8.009  12.676   4.399 -0.0297 -1.4477 -0.4840
  501CHL1   C2765359   7.840  12.913   4.448 -0.2556  0.2333 -0.3982
  501CHL1  H27A65360   7.837  12.886   4.555  2.5182  2.4169  0.3781
  501CHL1  H27B65361   7.941  12.955   4.427 -0.2886  0.7977  0.5368
  501CHL1  H27C65362   7.768  12.995   4.427  0.2548  1.3766  1.9483
  502CHL1    C365363  12.093   8.231   2.124 -0.1049 -0.2227 -0.1529
  502CHL1    H365364  12.073   8.129   2.165  0.0501  0.9477  3.1411
  502CHL1    O365365  12.129   8.216   1.989  0.3586  0.2443 -0.2667
  502CHL1   H3'65366  12.048   8.191   1.943  1.0333  1.8397 -2.4878
  502CHL1    C465367  11.978   8.329   2.120 -0.4271  0.3033 -1.0019
  502CHL1   H4A65368  12.014   8.419   2.065  1.5974  0.6003  0.7003
  502CHL1   H4B65369  11.891   8.291   2.062 -0.8084  3.6484 -2.8606
  502CHL1    C565370  11.940   8.355   2.268 -0.7452 -0.2203 -0.0279
  502CHL1    C665371  11.817   8.330   2.312  0.5034 -0.0759  0.4983
  502CHL1    H665372  11.736   8.294   2.247  0.6194 -1.5048  1.0931
  502CHL1    C765373  11.775   8.362   2.451  0.1320 -0.4018 -0.1741
  502CHL1   H7A65374  11.689   8.432   2.447  1.2228  1.0208  0.0730
  502CHL1   H7B65375  11.738   8.274   2.507  1.8756 -1.5452 -0.7182
  502CHL1    C865376  11.880   8.442   2.535 -0.2503  0.1433 -0.9145
  502CHL1    H865377  11.870   8.550   2.513 -0.7768  0.4895  0.8431
  502CHL1   C1465378  11.848   8.434   2.681 -0.2284  0.8724  0.1173
  502CHL1   H1465379  11.856   8.325   2.700 -1.9203 -0.2238 -4.1069
  502CHL1   C1565380  11.709   8.475   2.738 -0.6573  0.0571  0.2810
  502CHL1  H15A65381  11.681   8.571   2.690 -0.1603  0.4640  0.7843
  502CHL1  H15B65382  11.630   8.399   2.723 -1.6119  1.0035  0.3887
  502CHL1   C1665383  11.733   8.505   2.885 -0.1886 -0.1170  0.4543
  502CHL1  H16A65384  11.688   8.600   2.922 -0.5856  0.8216 -2.1926
  502CHL1  H16B65385  11.687   8.423   2.943 -2.9178 -0.3451 -1.8377
  502CHL1   C1765386  11.885   8.495   2.914 -0.1062 -0.2264 -0.2918
  502CHL1   H1765387  11.900   8.389   2.941  0.0592 -0.0682  0.2467
  502CHL1   C1365388  11.953   8.508   2.773  0.5655 -0.4480 -0.7739
  502CHL1   C1865389  11.957   8.663   2.743  0.3123  0.0981 -0.6021
  502CHL1  H18A65390  11.862   8.713   2.773  1.4115  2.1049 -0.2351
  502CHL1  H18B65391  12.038   8.702   2.810 -1.0443 -0.8146  1.6846
  502CHL1  H18C65392  11.988   8.688   2.639  0.9672 -1.8125 -0.9042
  502CHL1   C1265393  12.094   8.442   2.750  0.5857 -0.3889 -0.4286
  502CHL1  H12A65394  12.170   8.496   2.810  1.2383 -1.9948  0.2454
  502CHL1  H12B65395  12.092   8.339   2.789 -2.9740  1.1222  4.3196
  502CHL1   C1165396  12.140   8.445   2.600  0.3643 -0.1426 -0.0460
  502CHL1  H11A65397  12.161   8.552   2.578  0.2852  0.5206  2.6990
  502CHL1  H11B65398  12.237   8.391   2.600  0.7918  0.6064  1.1560
  502CHL1    C965399  12.025   8.395   2.508  0.1077  0.5736  0.6118
  502CHL1    H965400  12.017   8.285   2.522  1.1125  0.6434  1.8596
  502CHL1   C1065401  12.054   8.400   2.354  0.2428 -0.3773  0.1932
  502CHL1   C1965402  12.088   8.549   2.312 -0.5600  0.4689  0.0809
  502CHL1  H19A65403  12.176   8.574   2.375 -0.2631 -1.5924  0.5611
  502CHL1  H19B65404  12.122   8.567   2.208  2.4565  0.2892  0.9510
  502CHL1  H19C65405  12.006   8.616   2.345 -1.9899 -1.1485 -0.0394
  502CHL1    C165406  12.187   8.302   2.340  0.3433  0.2012 -0.2475
  502CHL1   H1A65407  12.275   8.349   2.389 -0.2992  1.0434  0.1222
  502CHL1   H1B65408  12.163   8.210   2.398 -0.3851 -0.4707 -1.5806
  502CHL1    C265409  12.222   8.270   2.194  0.6743 -0.3484  0.0688
  502CHL1   H2A65410  12.298   8.189   2.189  1.0499 -0.0419  0.6722
  502CHL1   H2B65411  12.263   8.358   2.141  2.3888 -1.9818 -1.4486
  502CHL1   C2065412  11.923   8.582   3.033 -0.0479 -0.3297  0.3474
  502CHL1   H2065413  11.915   8.689   3.004  0.0338 -0.7729 -1.4362
  502CHL1   C2165414  12.068   8.543   3.066 -0.4207 -0.2137  0.4686
  502CHL1  H21A65415  12.142   8.593   3.000 -0.8329  0.0262  0.1814
  502CHL1  H21B65416  12.083   8.433   3.064  0.7727 -0.0739  0.9594
  502CHL1  H21C65417  12.089   8.587   3.166  2.5626  1.7781 -0.8981
  502CHL1   C2265418  11.829   8.578   3.166  0.2245 -0.5795  0.5582
  502CHL1  H22A65419  11.720   8.577   3.142 -0.1200 -0.3258  2.0191
  502CHL1  H22B65420  11.842   8.483   3.223 -3.1153 -0.1498  2.2865
  502CHL1   C2365421  11.849   8.699   3.260  0.1866  0.0947 -0.7692
  502CHL1  H23A65422  11.956   8.692   3.289  0.3262 -0.2734 -1.3623
  502CHL1  H23B65423  11.831   8.795   3.206 -1.5532  0.0632 -0.3110
  502CHL1   C2465424  11.759   8.692   3.385  0.7092  0.1649  0.3501
  502CHL1  H24A65425  11.657   8.714   3.346  1.3209  0.1650 -1.3456
  502CHL1  H24B65426  11.769   8.591   3.430 -0.9442 -0.5050 -0.6624
  502CHL1   C2565427  11.796   8.795   3.492  0.6322  0.2072  0.2808
  502CHL1   H2565428  11.800   8.891   3.437 -0.5067 -1.1568 -2.3745
  502CHL1   C2665429  11.678   8.809   3.598 -0.2459  0.1010  0.3581
  502CHL1  H26A65430  11.588   8.854   3.550  0.2422 -0.9891 -1.6835
  502CHL1  H26B65431  11.644   8.718   3.653 -0.3886  0.1721  0.3882
  502CHL1  H26C65432  11.708   8.876   3.682 -1.6223  0.8741  0.2616
  502CHL1   C2765433  11.928   8.766   3.557 -0.5252 -0.2426  0.2756
  502CHL1  H27A65434  11.937   8.847   3.632  0.3143  2.2733 -2.3598
  502CHL1  H27B65435  11.941   8.666   3.604  0.3216 -0.2106  0.1227
  502CHL1  H27C65436  12.005   8.776   3.477 -1.0248  2.9427  0.0580
  503CHL1    C365437  12.022   5.982   2.361 -0.2009 -0.1347  0.6778
  503CHL1    H365438  12.027   6.091   2.383  1.2183 -0.4535  2.1542
  503CHL1    O365439  11.973   5.955   2.233 -0.1898 -0.4039  0.0617
  503CHL1   H3'65440  11.911   6.026   2.221  1.0622  0.7009 -0.1465
  503CHL1    C465441  12.163   5.910   2.370 -0.4381 -0.8352 -0.7434
  503CHL1   H4A65442  12.164   5.810   2.323 -0.2028 -0.4588 -1.5572
  503CHL1   H4B65443  12.234   5.978   2.318 -0.6760  0.7251  0.8614
  503CHL1    C565444  12.216   5.908   2.518  0.3254 -0.2216  0.0236
  503CHL1    C665445  12.341   5.952   2.545  0.4649 -0.0938 -0.6224
  503CHL1    H665446  12.402   6.002   2.468 -2.2725  0.3942 -2.6149
  503CHL1    C765447  12.396   5.941   2.683  0.5209  0.2347 -0.3864
  503CHL1   H7A65448  12.500   5.903   2.681  0.3848 -0.2402  0.8207
  503CHL1   H7B65449  12.404   6.036   2.740  3.3524 -0.3595  0.3560
  503CHL1    C865450  12.322   5.843   2.780  0.2667  0.1363  0.4164
  503CHL1    H865451  12.337   5.739   2.743 -0.0912  0.4218 -0.5610
  503CHL1   C1465452  12.367   5.852   2.927  0.2379 -0.3190 -0.1528
  503CHL1   H1465453  12.333   5.952   2.960  2.0991 -0.0387  1.0689
  503CHL1   C1565454  12.508   5.855   2.963  0.2630  0.4100  0.6932
  503CHL1  H15A65455  12.564   5.772   2.915  0.5756  0.4636  0.9650
  503CHL1  H15B65456  12.561   5.950   2.939  0.2950  0.2569  0.1376
  503CHL1   C1665457  12.511   5.831   3.115  0.5072  0.3960 -0.5819
  503CHL1  H16A65458  12.578   5.743   3.128  1.9578  1.2345 -2.0077
  503CHL1  H16B65459  12.557   5.907   3.181 -1.5546  0.8401  0.4044
  503CHL1   C1765460  12.369   5.802   3.164 -0.0778 -0.1281 -0.6534
  503CHL1   H1765461  12.324   5.899   3.192 -0.2701 -0.8437  1.7136
  503CHL1   C1365462  12.297   5.761   3.037  0.3045  0.3012  0.3794
  503CHL1   C1865463  12.311   5.605   3.005  0.3284 -0.0970  0.9304
  503CHL1  H18A65464  12.260   5.548   3.086 -0.8358 -1.2952 -0.5931
  503CHL1  H18B65465  12.268   5.571   2.909  1.0530  1.9436 -0.1820
  503CHL1  H18C65466  12.420   5.584   3.002  0.1732 -0.8215 -0.9274
  503CHL1   C1265467  12.141   5.794   3.019  0.3980  1.3054 -0.3551
  503CHL1  H12A65468  12.072   5.726   3.074  0.7813 -0.3288 -1.8062
  503CHL1  H12B65469  12.119   5.893   3.064  0.5342  0.7548  0.9493
  503CHL1   C1165470  12.093   5.798   2.879  1.0854  0.1337 -0.2123
  503CHL1  H11A65471  12.079   5.694   2.845  0.3994  0.2537 -0.3226
  503CHL1  H11B65472  11.991   5.842   2.886 -0.2249 -2.5237 -1.1485
  503CHL1    C965473  12.175   5.871   2.771  0.3045 -0.5529 -0.0941
  503CHL1    H965474  12.160   5.980   2.785  0.2246 -0.3485 -1.5795
  503CHL1   C1065475  12.118   5.855   2.626 -0.0531 -0.6490 -0.3835
  503CHL1   C1965476  12.096   5.706   2.600  0.5138  0.4623  0.1161
  503CHL1  H19A65477  12.075   5.677   2.495 -1.5267  1.2763  0.2681
  503CHL1  H19B65478  12.191   5.652   2.620  0.3486 -0.4516 -1.4174
  503CHL1  H19C65479  12.013   5.670   2.664  1.1400 -1.7764 -0.2459
  503CHL1    C165480  11.982   5.917   2.614 -0.5702 -0.1979 -0.8096
  503CHL1   H1A65481  11.913   5.880   2.693  0.7042  1.3292  1.1382
  503CHL1   H1B65482  12.001   6.024   2.635  0.7376 -0.3481 -1.1443
  503CHL1    C265483  11.926   5.922   2.469 -0.7118  0.0496  0.7075
  503CHL1   H2A65484  11.833   5.981   2.462 -0.1417  0.9032  0.0373
  503CHL1   H2B65485  11.903   5.817   2.442  3.0401 -1.0776  1.2396
  503CHL1   C2065486  12.365   5.706   3.286  0.0405 -0.5371  0.3077
  503CHL1   H2065487  12.396   5.602   3.263  0.0359 -0.5854  0.5167
  503CHL1   C2165488  12.220   5.685   3.338  0.7575  0.2701  0.1674
  503CHL1  H21A65489  12.149   5.647   3.262  0.0185 -0.7321  1.3247
  503CHL1  H21B65490  12.185   5.778   3.387  1.8482  0.2685  0.9867
  503CHL1  H21C65491  12.224   5.610   3.420  2.7963  0.4143  0.2570
  503CHL1   C2265492  12.462   5.763   3.393  0.0253  0.3243  1.0261
  503CHL1  H22A65493  12.567   5.780   3.362  0.1073 -0.8590  0.5854
  503CHL1  H22B65494  12.431   5.857   3.443  1.3366  2.5834 -2.0951
  503CHL1   C2365495  12.491   5.650   3.502 -0.0966  0.1024 -0.6421
  503CHL1  H23A65496  12.400   5.644   3.565  0.1982 -0.9426 -0.2930
  503CHL1  H23B65497  12.514   5.555   3.450 -0.6658 -0.9767  1.0245
  503CHL1   C2465498  12.608   5.682   3.596 -0.3263 -0.2948  0.2931
  503CHL1  H24A65499  12.628   5.593   3.660  1.2285 -1.0615 -1.1910
  503CHL1  H24B65500  12.706   5.688   3.544 -0.1254 -0.0624  0.6959
  503CHL1   C2565501  12.588   5.806   3.683  0.1715  0.4844 -0.5482
  503CHL1   H2565502  12.561   5.891   3.617 -2.4604  0.6908  0.6355
  503CHL1   C2665503  12.466   5.798   3.776 -0.1986 -0.8088 -0.0721
  503CHL1  H26A65504  12.482   5.878   3.853  2.9962 -2.1646  0.8379
  503CHL1  H26B65505  12.376   5.820   3.715  1.7882 -0.2077 -2.9530
  503CHL1  H26C65506  12.453   5.698   3.822  0.9303 -0.0072  2.1743
  503CHL1   C2765507  12.721   5.845   3.763 -0.2815 -0.4248 -0.5619
  503CHL1  H27A65508  12.693   5.944   3.808 -0.2335 -0.1791 -1.0740
  503CHL1  H27B65509  12.725   5.775   3.850  1.1390 -0.0308 -0.2805
  503CHL1  H27C65510  12.813   5.867   3.705 -0.5368  2.0445 -0.1713
  504CHL1    C365511   7.536   2.550   2.738 -0.7025  0.2928  0.1932
  504CHL1    H365512   7.469   2.492   2.806 -0.9228 -1.2650 -1.2570
  504CHL1    O365513   7.531   2.491   2.608  0.0617  0.0963  0.1636
  504CHL1   H3'65514   7.545   2.398   2.627 -1.5262 -0.0858  0.5913
  504CHL1    C465515   7.494   2.689   2.730 -0.2663 -0.5184 -0.1237
  504CHL1   H4A65516   7.562   2.750   2.667  1.2058 -0.2343  1.6668
  504CHL1   H4B65517   7.392   2.690   2.686  0.7289  0.5073 -2.6247
  504CHL1    C565518   7.494   2.742   2.874 -0.8819 -0.2747  0.6752
  504CHL1    C665519   7.381   2.787   2.926  0.7844 -0.9596  0.0047
  504CHL1    H665520   7.289   2.796   2.867  0.8176  0.5357  0.1401
  504CHL1    C765521   7.366   2.853   3.059 -0.6494 -0.0151 -0.8305
  504CHL1   H7A65522   7.311   2.949   3.043  1.2052  1.1215 -0.7118
  504CHL1   H7B65523   7.310   2.801   3.140  1.0902  0.9685  1.1251
  504CHL1    C865524   7.515   2.885   3.115  0.5669 -0.2689 -0.7377
  504CHL1    H865525   7.562   2.972   3.065  1.8700 -1.0125 -0.8517
  504CHL1   C1465526   7.502   2.913   3.268  0.1809 -0.4634 -0.2306
  504CHL1   H1465527   7.448   2.827   3.313 -0.5562  1.3780  2.6407
  504CHL1   C1565528   7.395   3.022   3.297 -0.2352 -0.1457 -0.5006
  504CHL1  H15A65529   7.409   3.115   3.237 -2.6929  0.3633 -0.3984
  504CHL1  H15B65530   7.289   2.991   3.291  0.0821 -1.4713  0.4860
  504CHL1   C1665531   7.431   3.056   3.447 -0.2477 -0.6107  0.3501
  504CHL1  H16A65532   7.435   3.166   3.455 -0.6096 -0.6180  0.6343
  504CHL1  H16B65533   7.358   3.011   3.518 -0.0371 -0.8333  0.4245
  504CHL1   C1765534   7.563   2.979   3.481 -0.0185 -0.0301  0.3060
  504CHL1   H1765535   7.546   2.878   3.525  0.0953 -0.4560 -0.6160
  504CHL1   C1365536   7.622   2.943   3.341 -0.1453 -0.5301 -0.0412
  504CHL1   C1865537   7.695   3.068   3.291  0.3316  0.2581  0.0815
  504CHL1  H18A65538   7.794   3.087   3.338  0.4838 -2.4377  1.0592
  504CHL1  H18B65539   7.712   3.056   3.182 -0.0893  3.0621 -0.3813
  504CHL1  H18C65540   7.636   3.161   3.306 -2.5731 -0.7918 -3.4327
  504CHL1   C1265541   7.710   2.817   3.337  0.3202  0.6850 -0.2152
  504CHL1  H12A65542   7.810   2.841   3.376  0.4121 -0.3454  0.2061
  504CHL1  H12B65543   7.659   2.742   3.401 -2.3468  0.7926 -2.0174
  504CHL1   C1165544   7.735   2.767   3.186 -0.1056  0.0334 -0.7544
  504CHL1  H11A65545   7.807   2.839   3.141  0.1032  0.5069  0.3037
  504CHL1  H11B65546   7.781   2.666   3.188  0.9678  0.4751 -1.8030
  504CHL1    C965547   7.606   2.770   3.096 -0.6635 -0.1162 -0.4105
  504CHL1    H965548   7.551   2.678   3.127  0.0875 -0.1950  0.7620
  504CHL1   C1065549   7.628   2.730   2.944 -0.4831 -0.0447  0.8140
  504CHL1   C1965550   7.727   2.836   2.880  0.6645 -0.1539  0.1244
  504CHL1  H19A65551   7.828   2.814   2.921  0.0281 -0.0929  1.7848
  504CHL1  H19B65552   7.734   2.842   2.769  1.0408 -0.8288  0.1070
  504CHL1  H19C65553   7.694   2.937   2.912  1.0704  0.2717 -0.7795
  504CHL1    C165554   7.679   2.586   2.932  0.8826 -0.0941 -0.1475
  504CHL1   H1A65555   7.780   2.581   2.978 -0.3322 -2.0298  2.5593
  504CHL1   H1B65556   7.613   2.524   2.996  0.2458  0.6553 -0.0670
  504CHL1    C265557   7.675   2.531   2.788  0.3724  0.1906 -0.0906
  504CHL1   H2A65558   7.703   2.424   2.798 -0.5865 -0.2151 -1.4760
  504CHL1   H2B65559   7.742   2.580   2.714  1.0087 -1.2545 -0.4969
  504CHL1   C2065560   7.652   3.059   3.584  0.1338  0.3032 -0.8045
  504CHL1   H2065561   7.686   3.161   3.556  0.7578  0.3025 -0.0836
  504CHL1   C2165562   7.775   2.979   3.626 -0.4217 -0.0676  0.5895
  504CHL1  H21A65563   7.743   2.882   3.670  1.5990 -1.3544 -0.6021
  504CHL1  H21B65564   7.838   3.032   3.701 -0.6164 -1.9639  2.1652
  504CHL1  H21C65565   7.833   2.965   3.532 -2.1730 -2.1654 -0.2656
  504CHL1   C2265566   7.564   3.084   3.717  0.1092  0.4667  0.3335
  504CHL1  H22A65567   7.468   3.132   3.689 -0.4525 -1.5951 -1.6261
  504CHL1  H22B65568   7.535   2.984   3.757  0.6707 -0.2551 -1.0010
  504CHL1   C2365569   7.633   3.175   3.823 -0.3951  0.5237 -0.6996
  504CHL1  H23A65570   7.722   3.119   3.857 -1.1213 -1.9200 -2.5034
  504CHL1  H23B65571   7.657   3.273   3.777  1.0146  1.8817  2.6335
  504CHL1   C2465572   7.531   3.203   3.940  0.0123  0.5605  0.0105
  504CHL1  H24A65573   7.440   3.255   3.905 -1.0674  0.8551  2.9431
  504CHL1  H24B65574   7.500   3.107   3.986  0.7958 -0.4840 -1.5620
  504CHL1   C2565575   7.571   3.293   4.058 -0.0831  0.2230  0.5650
  504CHL1   H2565576   7.483   3.287   4.126 -0.8265  1.8421 -0.2094
  504CHL1   C2665577   7.699   3.248   4.132  0.1684  0.1260 -0.5037
  504CHL1  H26A65578   7.727   3.311   4.219 -0.1580 -0.1846 -0.1723
  504CHL1  H26B65579   7.698   3.140   4.157 -0.1821 -0.6912 -3.5968
  504CHL1  H26C65580   7.776   3.250   4.052  0.2794  1.0225 -0.3887
  504CHL1   C2765581   7.588   3.439   4.011 -0.4253  0.0631 -0.1042
  504CHL1  H27A65582   7.494   3.464   3.957  0.5045 -0.1298 -1.8754
  504CHL1  H27B65583   7.590   3.517   4.089 -1.3458  0.0204 -0.0163
  504CHL1  H27C65584   7.676   3.452   3.945 -1.7703  1.7573 -1.6903
  505CHL1    C365585   2.082  10.765   2.677 -0.2493 -0.3161 -0.1040
  505CHL1    H365586   2.143  10.676   2.649  2.2693  1.5811 -0.9705
  505CHL1    O365587   2.020  10.814   2.561 -0.5008  0.2412 -0.1700
  505CHL1   H3'65588   1.931  10.779   2.566 -0.7202  0.9217  1.2200
  505CHL1    C465589   1.976  10.732   2.779 -0.0932  0.3843 -0.5021
  505CHL1   H4A65590   1.907  10.819   2.778  0.6193  0.9632 -1.7006
  505CHL1   H4B65591   1.916  10.646   2.744  0.6673 -0.1968 -0.4008
  505CHL1    C565592   2.032  10.699   2.922  0.5664  0.2241 -0.0829
  505CHL1    C665593   1.998  10.585   2.986  0.3038 -0.3207  0.4336
  505CHL1    H665594   1.938  10.514   2.927  1.0011 -0.4926 -0.0866
  505CHL1    C765595   2.046  10.549   3.119  0.0247  0.1269 -0.6053
  505CHL1   H7A65596   1.968  10.504   3.185 -0.4005 -0.5565 -1.5543
  505CHL1   H7B65597   2.122  10.469   3.110 -0.9227 -0.8253 -0.4288
  505CHL1    C865598   2.108  10.669   3.196  0.1919 -1.1905 -0.1145
  505CHL1    H865599   2.033  10.741   3.235  1.1486  0.0680 -0.5412
  505CHL1   C1465600   2.188  10.614   3.318  0.0032 -0.1811 -0.2942
  505CHL1   H1465601   2.271  10.551   3.279  1.2970  0.3549  1.4544
  505CHL1   C1565602   2.113  10.528   3.422 -0.1581  0.3261 -0.4182
  505CHL1  H15A65603   2.024  10.587   3.451 -0.6172 -0.9629  0.9273
  505CHL1  H15B65604   2.080  10.429   3.384 -1.5952  0.9479 -0.8326
  505CHL1   C1665605   2.214  10.518   3.535 -0.6113 -0.6806 -0.4489
  505CHL1  H16A65606   2.157  10.528   3.629  0.7935  0.0161  0.3728
  505CHL1  H16B65607   2.257  10.416   3.529  1.9874 -0.0878  3.7661
  505CHL1   C1765608   2.318  10.637   3.526  0.0781 -0.4735  0.1937
  505CHL1   H1765609   2.415  10.591   3.495  0.2565  0.3211 -0.4530
  505CHL1   C1365610   2.261  10.719   3.402 -0.9259 -0.5506  0.3139
  505CHL1   C1865611   2.166  10.834   3.452  0.2094  0.1888  0.0491
  505CHL1  H18A65612   2.113  10.884   3.368 -0.6705  1.7595  1.4758
  505CHL1  H18B65613   2.087  10.797   3.520  2.4639 -0.8282  2.2765
  505CHL1  H18C65614   2.214  10.925   3.496 -1.9028  2.0068 -1.1821
  505CHL1   C1265615   2.365  10.789   3.310 -0.4305  0.2313  0.0485
  505CHL1  H12A65616   2.398  10.883   3.361  3.7009 -1.7917  1.5820
  505CHL1  H12B65617   2.451  10.726   3.278  0.7656  0.6453  2.2268
  505CHL1   C1165618   2.300  10.840   3.178 -0.6765 -0.2964 -0.4219
  505CHL1  H11A65619   2.241  10.929   3.209  0.0624  0.6576 -1.6306
  505CHL1  H11B65620   2.378  10.884   3.111  0.1412 -1.3269 -0.1791
  505CHL1    C965621   2.212  10.737   3.104  0.8448 -0.6464  0.2341
  505CHL1    H965622   2.281  10.659   3.065  0.8411  0.0503 -1.2533
  505CHL1   C1065623   2.131  10.798   2.983  0.5416 -0.2417  0.5334
  505CHL1   C1965624   2.046  10.922   3.016  0.2199 -0.0906 -0.8613
  505CHL1  H19A65625   1.981  10.964   2.936 -0.4691  1.4405  0.4413
  505CHL1  H19B65626   1.995  10.909   3.114  1.3925 -1.1831 -0.3765
  505CHL1  H19C65627   2.126  10.995   3.040 -1.3796  0.5259  3.5672
  505CHL1    C165628   2.234  10.833   2.871 -0.8274  0.9021 -0.2759
  505CHL1   H1A65629   2.302  10.913   2.907 -2.4786  2.2405 -0.0127
  505CHL1   H1B65630   2.299  10.747   2.847 -1.2729  0.5866 -0.3595
  505CHL1    C265631   2.174  10.873   2.737  0.0532  0.3231  0.6725
  505CHL1   H2A65632   2.246  10.885   2.654  0.0160 -0.4718  0.5200
  505CHL1   H2B65633   2.126  10.973   2.746  1.1617  0.8936  0.3616
  505CHL1   C2065634   2.350  10.704   3.654  0.3066 -0.2177 -0.1132
  505CHL1   H2065635   2.271  10.775   3.688  0.3840 -0.3615  0.3848
  505CHL1   C2165636   2.482  10.784   3.626  0.4386  0.4471  0.1724
  505CHL1  H21A65637   2.565  10.723   3.584 -1.6886 -1.5913 -1.3523
  505CHL1  H21B65638   2.521  10.824   3.721 -1.3565 -0.0361  1.1628
  505CHL1  H21C65639   2.468  10.867   3.553 -0.0600 -0.4842 -0.8269
  505CHL1   C2265640   2.367  10.609   3.778  0.2134  0.6678 -0.9796
  505CHL1  H22A65641   2.390  10.663   3.873  0.7077  0.1509 -0.8015
  505CHL1  H22B65642   2.269  10.565   3.804  0.9183 -0.1020  0.5184
  505CHL1   C2365643   2.476  10.494   3.754 -0.1065 -0.4318 -0.4702
  505CHL1  H23A65644   2.444  10.429   3.670 -1.1102 -0.4583 -0.0888
  505CHL1  H23B65645   2.563  10.553   3.717 -1.0020  1.8638  0.8712
  505CHL1   C2465646   2.507  10.400   3.870  0.2277 -0.5426  0.5141
  505CHL1  H24A65647   2.412  10.353   3.904  0.1722  0.6679  2.2204
  505CHL1  H24B65648   2.576  10.321   3.833 -0.6932 -0.6553 -1.0325
  505CHL1   C2565649   2.572  10.470   3.994 -0.3878 -0.3402 -0.1517
  505CHL1   H2565650   2.504  10.546   4.037  2.1225  1.1950  1.4046
  505CHL1   C2665651   2.597  10.367   4.111 -0.2839  0.0566  0.4164
  505CHL1  H26A65652   2.648  10.401   4.204  2.2064 -0.0131 -0.8409
  505CHL1  H26B65653   2.506  10.319   4.150  0.3636 -1.7574 -0.2032
  505CHL1  H26C65654   2.655  10.280   4.074  1.5441  1.5608 -0.4680
  505CHL1   C2765655   2.702  10.534   3.955  0.0601  0.2900 -0.1824
  505CHL1  H27A65656   2.686  10.610   3.876 -2.9616 -0.8112 -0.7683
  505CHL1  H27B65657   2.742  10.590   4.042 -1.1852 -1.0792  1.3502
  505CHL1  H27C65658   2.775  10.454   3.930  1.9001  2.5783 -2.6294
  506CHL1    C365659   1.121   3.150   2.371 -0.3166  0.1299 -0.7227
  506CHL1    H365660   1.056   3.061   2.361 -0.6266  0.2361  0.2801
  506CHL1    O365661   1.099   3.213   2.245 -0.2107 -0.1994 -0.1453
  506CHL1   H3'65662   1.170   3.179   2.190 -0.9184  0.8485 -1.7764
  506CHL1    C465663   1.090   3.253   2.480 -0.4595  0.9988 -0.3181
  506CHL1   H4A65664   1.162   3.336   2.465  3.6951 -2.4247 -1.4400
  506CHL1   H4B65665   0.987   3.294   2.475 -0.8796  0.1718  0.9630
  506CHL1    C565666   1.122   3.205   2.623 -0.7520  0.6437  0.5380
  506CHL1    C665667   1.024   3.216   2.718  0.2304  0.4347 -0.0677
  506CHL1    H665668   0.928   3.263   2.694 -0.7324 -1.7779 -0.7935
  506CHL1    C765669   1.047   3.177   2.857 -0.5222  0.2906 -0.3537
  506CHL1   H7A65670   1.025   3.244   2.943 -0.0737 -1.8304  1.5176
  506CHL1   H7B65671   0.992   3.084   2.880 -2.1997  1.5977  1.2534
  506CHL1    C865672   1.197   3.139   2.888 -0.0956  0.2401  0.1278
  506CHL1    H865673   1.260   3.225   2.917  1.2980 -0.8248  0.3263
  506CHL1   C1465674   1.204   3.039   3.005  0.1204  0.7065 -0.1271
  506CHL1   H1465675   1.142   2.952   2.973 -0.4539  1.0768 -0.0331
  506CHL1   C1565676   1.125   3.088   3.125 -0.5969 -0.4716  0.1587
  506CHL1  H15A65677   1.135   3.192   3.163 -0.3077 -0.7814  0.9602
  506CHL1  H15B65678   1.016   3.072   3.108 -1.6902  3.7115  1.8383
  506CHL1   C1665679   1.170   2.994   3.235  0.5350 -0.0340  0.4779
  506CHL1  H16A65680   1.204   3.051   3.324 -0.4664  1.5743 -0.1212
  506CHL1  H16B65681   1.097   2.918   3.269  0.8093 -0.5946 -0.1608
  506CHL1   C1765682   1.293   2.921   3.183  0.0300 -0.4137  0.5143
  506CHL1   H1765683   1.245   2.828   3.146 -2.2640  1.1657 -0.7314
  506CHL1   C1365684   1.337   2.995   3.050 -0.9889  0.3039 -0.1277
  506CHL1   C1865685   1.425   3.114   3.106 -0.0521  0.1861  0.6566
  506CHL1  H18A65686   1.434   3.192   3.027  0.3866 -0.0483  0.4748
  506CHL1  H18B65687   1.383   3.169   3.193 -0.6055  0.5458  0.1699
  506CHL1  H18C65688   1.527   3.082   3.136 -0.4556 -1.6875  0.1682
  506CHL1   C1265689   1.401   2.921   2.932  0.8426 -0.1599 -0.8063
  506CHL1  H12A65690   1.506   2.900   2.959  1.3457  1.5866 -1.3000
  506CHL1  H12B65691   1.327   2.843   2.903 -3.4827  2.9531  0.6856
  506CHL1   C1165692   1.407   3.008   2.804 -0.6577  0.1793 -0.4083
  506CHL1  H11A65693   1.475   3.092   2.831  1.1844 -1.3467 -0.0612
  506CHL1  H11B65694   1.460   2.953   2.725 -1.7756 -0.8605 -0.4565
  506CHL1    C965695   1.269   3.067   2.767  1.1147  0.5214 -0.1475
  506CHL1    H965696   1.197   2.983   2.755  0.0807  1.5020 -0.9514
  506CHL1   C1065697   1.265   3.145   2.642  0.6638 -0.9642  0.1284
  506CHL1   C1965698   1.360   3.265   2.648 -0.6942 -0.4603  0.1455
  506CHL1  H19A65699   1.468   3.239   2.647  0.0350  2.2731  0.3224
  506CHL1  H19B65700   1.349   3.326   2.556 -0.5052 -0.7796 -0.0922
  506CHL1  H19C65701   1.342   3.324   2.740 -0.4945  0.8424 -0.6356
  506CHL1    C165702   1.301   3.061   2.522  0.1097 -0.2498  0.8264
  506CHL1   H1A65703   1.409   3.035   2.527  0.2248 -0.0437 -0.2642
  506CHL1   H1B65704   1.246   2.965   2.533  1.5176 -1.1862  0.1289
  506CHL1    C265705   1.266   3.118   2.381 -0.3368 -0.1405  0.2936
  506CHL1   H2A65706   1.309   3.047   2.307  0.0380  0.4857 -0.1024
  506CHL1   H2B65707   1.328   3.210   2.377  0.1736 -0.4312  1.1122
  506CHL1   C2065708   1.393   2.882   3.298  0.5580 -0.2022 -0.1225
  506CHL1   H2065709   1.432   2.980   3.331 -0.6385  0.3736 -0.3787
  506CHL1   C2165710   1.512   2.803   3.235 -0.2812  0.2657 -0.7074
  506CHL1  H21A65711   1.575   2.762   3.317  1.7119  0.8461 -1.8668
  506CHL1  H21B65712   1.583   2.871   3.183  1.2916 -0.5848  0.2485
  506CHL1  H21C65713   1.487   2.723   3.162 -0.0018 -0.0909 -0.4154
  506CHL1   C2265714   1.322   2.804   3.411 -0.2862  0.4458  0.1224
  506CHL1  H22A65715   1.228   2.846   3.453 -2.0806 -1.9537 -1.2181
  506CHL1  H22B65716   1.283   2.715   3.357  1.4862  1.2924 -2.7613
  506CHL1   C2365717   1.408   2.761   3.534  0.5346 -0.3590  0.1267
  506CHL1  H23A65718   1.377   2.668   3.587  1.2060 -0.2228  0.7673
  506CHL1  H23B65719   1.508   2.723   3.504  0.1288 -1.1850 -0.2015
  506CHL1   C2465720   1.411   2.880   3.634 -0.0795  0.4046 -0.4108
  506CHL1  H24A65721   1.443   2.967   3.573  1.2513 -1.1700 -2.0774
  506CHL1  H24B65722   1.307   2.896   3.669 -0.9116  1.4545 -3.0814
  506CHL1   C2565723   1.510   2.874   3.751  0.4943  0.2650 -0.3618
  506CHL1   H2565724   1.514   2.977   3.794 -2.4767  1.1554 -1.9378
  506CHL1   C2665725   1.457   2.778   3.857  0.0779  0.4101 -0.1000
  506CHL1  H26A65726   1.380   2.822   3.925 -1.0439 -0.7058 -0.6105
  506CHL1  H26B65727   1.414   2.693   3.799  0.7275  0.4254 -0.6137
  506CHL1  H26C65728   1.544   2.742   3.916  1.9150 -0.0639 -2.9256
  506CHL1   C2765729   1.647   2.837   3.704 -0.1224  0.6265  0.1773
  506CHL1  H27A65730   1.722   2.848   3.785 -0.3136 -0.2847  0.4861
  506CHL1  H27B65731   1.653   2.744   3.643  1.8728  0.6624  0.2288
  506CHL1  H27C65732   1.682   2.901   3.620 -0.2397  0.3719 -0.0690
  507CHL1    C365733  10.582   3.197   2.678 -0.6657 -0.2657  0.2042
  507CHL1    H365734  10.545   3.300   2.657 -1.2518  0.2937  3.3555
  507CHL1    O365735  10.623   3.145   2.554 -0.2901 -0.3976  0.0512
  507CHL1   H3'65736  10.549   3.168   2.498 -1.8280 -2.5479  1.0372
  507CHL1    C465737  10.705   3.211   2.766 -0.2059 -0.2847 -0.6245
  507CHL1   H4A65738  10.758   3.114   2.778 -0.6884 -0.7194 -1.7657
  507CHL1   H4B65739  10.780   3.274   2.714 -1.2023  0.0644 -1.6722
  507CHL1    C565740  10.663   3.266   2.902 -0.5891  1.2819  0.1838
  507CHL1    C665741  10.742   3.361   2.962 -0.4039  0.7684 -0.5481
  507CHL1    H665742  10.827   3.407   2.909 -0.9583  0.1399 -2.0365
  507CHL1    C765743  10.700   3.415   3.096 -0.7064  0.2360  0.3348
  507CHL1   H7A65744  10.796   3.440   3.147  0.2917  0.8927 -1.7354
  507CHL1   H7B65745  10.651   3.513   3.078 -0.7375  0.4122  1.3531
  507CHL1    C865746  10.611   3.322   3.175 -0.3257  0.4611  0.1004
  507CHL1    H865747  10.674   3.235   3.200  0.3075  1.3771  1.8348
  507CHL1   C1465748  10.576   3.392   3.307 -0.1114  0.3955  0.6960
  507CHL1   H1465749  10.507   3.474   3.276  1.6961  0.9851 -2.1699
  507CHL1   C1565750  10.689   3.459   3.382  0.2366 -0.7133 -0.1593
  507CHL1  H15A65751  10.777   3.395   3.403  1.5714  1.6448  1.8648
  507CHL1  H15B65752  10.711   3.551   3.323 -2.3737  0.1499  0.1027
  507CHL1   C1665753  10.611   3.482   3.516 -0.0936  0.5336  0.2416
  507CHL1  H16A65754  10.677   3.439   3.594 -0.0615 -0.1251 -0.1400
  507CHL1  H16B65755  10.604   3.593   3.519  1.9819  0.7303 -0.8865
  507CHL1   C1765756  10.478   3.407   3.515  0.5134 -0.9221  0.2193
  507CHL1   H1765757  10.399   3.479   3.484  1.5653 -0.5284 -1.6869
  507CHL1   C1365758  10.487   3.304   3.399  0.2733 -0.3680 -0.1758
  507CHL1   C1865759  10.579   3.188   3.441  0.3811 -0.3405 -0.5477
  507CHL1  H18A65760  10.602   3.120   3.356  2.5501 -0.1246 -0.1759
  507CHL1  H18B65761  10.674   3.211   3.492  0.9211  0.3105 -1.8117
  507CHL1  H18C65762  10.516   3.126   3.509 -1.2439  0.7626 -0.9849
  507CHL1   C1265763  10.359   3.273   3.322  0.4865 -0.3491  0.5085
  507CHL1  H12A65764  10.297   3.205   3.384 -2.0932 -0.2422 -1.7911
  507CHL1  H12B65765  10.306   3.367   3.298  0.5156 -0.6083 -0.6022
  507CHL1   C1165766  10.385   3.204   3.182  0.2844 -0.0851 -0.1380
  507CHL1  H11A65767  10.419   3.102   3.207  3.4576  0.8868 -0.0293
  507CHL1  H11B65768  10.286   3.195   3.133  0.2485  3.2027 -0.9670
  507CHL1    C965769  10.488   3.283   3.090 -1.2741 -0.0903  0.0088
  507CHL1    H965770  10.433   3.374   3.058 -0.9788 -0.0871 -0.4950
  507CHL1   C1065771  10.538   3.200   2.969  1.3316  0.2535  0.6713
  507CHL1   C1965772  10.582   3.062   3.013 -0.3770  0.0220  0.5773
  507CHL1  H19A65773  10.495   3.001   3.045  0.2251 -1.4722 -0.5104
  507CHL1  H19B65774  10.622   3.006   2.926 -3.7495  0.2551 -1.2948
  507CHL1  H19C65775  10.664   3.065   3.089  0.3089  0.6133 -0.1706
  507CHL1    C165776  10.422   3.185   2.866 -0.2876  0.3449 -0.2168
  507CHL1   H1A65777  10.345   3.121   2.914 -0.9968 -1.0229 -3.0139
  507CHL1   H1B65778  10.380   3.284   2.839 -0.3619  0.5086  0.4780
  507CHL1    C265779  10.470   3.117   2.740  0.1809 -0.2058  0.5467
  507CHL1   H2A65780  10.387   3.110   2.666  0.3245  4.1985 -0.3036
  507CHL1   H2B65781  10.514   3.016   2.753  1.7323  0.3232 -0.2312
  507CHL1   C2065782  10.435   3.350   3.654  0.1815  0.5952  1.1117
  507CHL1   H2065783  10.508   3.273   3.688 -1.1700 -1.2924 -0.0425
  507CHL1   C2165784  10.305   3.281   3.635 -0.6380 -0.3293 -0.9006
  507CHL1  H21A65785  10.270   3.240   3.732  0.5919  0.2109 -0.1969
  507CHL1  H21B65786  10.321   3.190   3.573  1.3328 -0.2931 -0.5306
  507CHL1  H21C65787  10.228   3.342   3.585  0.9789  1.9240 -0.7904
  507CHL1   C2265788  10.435   3.460   3.758  0.3300  0.0540  0.4690
  507CHL1  H22A65789  10.518   3.531   3.738  0.2935 -0.4262 -1.5329
  507CHL1  H22B65790  10.344   3.522   3.748 -1.5291 -2.6793 -0.8309
  507CHL1   C2365791  10.451   3.408   3.900 -0.0977  0.0678  0.1307
  507CHL1  H23A65792  10.401   3.310   3.913 -1.1569  0.5905  0.0491
  507CHL1  H23B65793  10.554   3.370   3.919 -0.6438 -1.5857 -0.0440
  507CHL1   C2465794  10.395   3.502   4.005 -0.2250 -0.1063 -0.3838
  507CHL1  H24A65795  10.454   3.597   4.001  1.3985 -1.0110  0.7958
  507CHL1  H24B65796  10.288   3.521   3.981 -0.9793 -2.5340  0.7492
  507CHL1   C2565797  10.392   3.450   4.149 -0.1948 -0.6978 -0.4943
  507CHL1   H2565798  10.495   3.422   4.179 -0.3608  0.1102  0.8995
  507CHL1   C2665799  10.345   3.558   4.246 -0.4709 -0.0126 -0.2627
  507CHL1  H26A65800  10.246   3.602   4.222 -0.9348 -0.2881  1.0746
  507CHL1  H26B65801  10.334   3.513   4.347 -1.8226 -0.9928 -0.8155
  507CHL1  H26C65802  10.418   3.641   4.251  1.4490 -1.6864  2.7558
  507CHL1   C2765803  10.293   3.326   4.155  0.3358 -0.5237 -0.3834
  507CHL1  H27A65804  10.192   3.357   4.120 -1.1050 -2.6864  1.6274
  507CHL1  H27B65805  10.331   3.242   4.093  0.0134 -1.3529  0.5303
  507CHL1  H27C65806  10.298   3.290   4.260  2.8662 -0.4713 -0.4077
  508CHL1    C365807   9.138   2.178   2.691 -0.5747 -0.3267 -0.4230
  508CHL1    H365808   9.245   2.190   2.719 -1.3091  2.3932  1.6588
  508CHL1    O365809   9.130   2.197   2.555 -0.2405  0.1230  0.1540
  508CHL1   H3'65810   9.137   2.290   2.534 -0.0299  0.0990  0.1211
  508CHL1    C465811   9.078   2.046   2.746 -0.5143  0.3892 -0.1150
  508CHL1   H4A65812   8.970   2.036   2.726 -0.8115 -1.2336  1.9269
  508CHL1   H4B65813   9.139   1.969   2.694  0.9139  2.1135 -1.1204
  508CHL1    C565814   9.102   2.055   2.893  0.1814  0.3817 -0.2704
  508CHL1    C665815   9.179   1.969   2.955 -0.1381 -0.2333  0.1144
  508CHL1    H665816   9.223   1.889   2.893 -0.6788 -0.6284  0.2333
  508CHL1    C765817   9.197   1.969   3.107  0.3393  0.3602 -0.2429
  508CHL1   H7A65818   9.194   1.862   3.136 -1.2654  0.6460  0.7787
  508CHL1   H7B65819   9.297   2.005   3.141  0.6683 -0.2053 -0.5899
  508CHL1    C865820   9.084   2.049   3.186  0.7353  0.4907  0.0856
  508CHL1    H865821   8.989   1.993   3.177  1.5930 -1.0692  0.3131
  508CHL1   C1465822   9.118   2.068   3.329 -0.1448 -0.0031 -0.2604
  508CHL1   H1465823   9.200   2.143   3.321 -1.4139  1.4216 -0.3268
  508CHL1   C1565824   9.151   1.949   3.419  0.8304  0.4588  0.5146
  508CHL1  H15A65825   9.072   1.872   3.407  3.3053 -2.0480 -0.8280
  508CHL1  H15B65826   9.243   1.899   3.382  0.6063 -0.1271  0.7527
  508CHL1   C1665827   9.147   1.991   3.562  0.2520 -0.3883 -0.0957
  508CHL1  H16A65828   9.082   1.920   3.616 -0.7223  0.3184 -0.3071
  508CHL1  H16B65829   9.249   2.007   3.602  0.3677  0.7554 -0.7830
  508CHL1   C1765830   9.082   2.137   3.556  1.6071 -0.1345  0.0170
  508CHL1   H1765831   9.164   2.213   3.556  0.5118  1.0908  0.2940
  508CHL1   C1365832   9.017   2.149   3.416 -0.7027  0.0614 -0.5228
  508CHL1   C1865833   8.884   2.073   3.416 -0.3036  0.0845 -0.5970
  508CHL1  H18A65834   8.830   2.072   3.318 -0.2299 -1.4880 -0.6500
  508CHL1  H18B65835   8.904   1.976   3.466  2.7827  1.6029  1.4036
  508CHL1  H18C65836   8.807   2.115   3.484  1.0503  0.4932  0.7225
  508CHL1   C1265837   9.013   2.290   3.355 -0.3276 -0.3465 -0.1142
  508CHL1  H12A65838   8.918   2.333   3.393  0.4570  1.4245 -0.0353
  508CHL1  H12B65839   9.097   2.358   3.380 -1.6712  1.7711 -1.1186
  508CHL1   C1165840   8.983   2.280   3.206 -0.0120  0.3284  0.5384
  508CHL1  H11A65841   8.876   2.248   3.203 -0.6770  2.3539  1.0146
  508CHL1  H11B65842   8.982   2.381   3.160 -2.9524 -0.6744 -1.9821
  508CHL1    C965843   9.072   2.192   3.121 -0.6064 -0.0527 -0.4573
  508CHL1    H965844   9.173   2.236   3.134 -0.7515  0.1889 -0.1163
  508CHL1   C1065845   9.040   2.185   2.971  0.7533  0.1299  1.2509
  508CHL1   C1965846   8.885   2.174   2.957 -0.8209 -0.3160 -0.1627
  508CHL1  H19A65847   8.854   2.167   2.850  3.3541 -0.7398 -1.5119
  508CHL1  H19B65848   8.842   2.096   3.024 -0.9725  0.9762  1.3047
  508CHL1  H19C65849   8.845   2.268   3.000 -1.6281 -0.6200 -0.2232
  508CHL1    C165850   9.084   2.306   2.898  0.1505 -0.0587  0.6188
  508CHL1   H1A65851   9.037   2.396   2.943  0.8233  0.5120  0.1897
  508CHL1   H1B65852   9.192   2.315   2.921  0.7108 -0.2688 -1.7403
  508CHL1    C265853   9.060   2.299   2.749  0.0606  0.2887 -0.1676
  508CHL1   H2A65854   9.107   2.393   2.713  1.7147 -0.7007 -0.7082
  508CHL1   H2B65855   8.953   2.293   2.717  0.4196 -1.4247 -1.1694
  508CHL1   C2065856   8.987   2.169   3.673  0.5303  0.1768  0.1210
  508CHL1   H2065857   8.902   2.098   3.671 -0.1166  0.9013  0.8643
  508CHL1   C2165858   8.922   2.305   3.658 -0.2550  0.1077 -0.0827
  508CHL1  H21A65859   8.858   2.321   3.569  1.2678  0.1727 -1.2171
  508CHL1  H21B65860   9.002   2.381   3.645 -0.8946  0.7895 -0.0795
  508CHL1  H21C65861   8.862   2.329   3.748 -0.7177  0.0918 -0.3845
  508CHL1   C2265862   9.063   2.164   3.807 -0.2540  0.2047  0.6732
  508CHL1  H22A65863   9.122   2.071   3.820  0.6654  0.9469  2.0483
  508CHL1  H22B65864   9.138   2.246   3.804  0.6146 -0.5750  0.3523
  508CHL1   C2365865   8.969   2.163   3.929 -0.1570 -0.0410 -0.1727
  508CHL1  H23A65866   8.896   2.247   3.925 -0.8126 -0.5416  0.7588
  508CHL1  H23B65867   8.913   2.067   3.936 -2.5058  1.2813  0.1428
  508CHL1   C2465868   9.046   2.196   4.062 -0.2773  0.2610  0.2101
  508CHL1  H24A65869   9.122   2.116   4.074  1.9066  1.9700 -1.3702
  508CHL1  H24B65870   9.087   2.298   4.044 -0.8162  0.9319  2.4423
  508CHL1   C2565871   8.959   2.208   4.187 -0.4046  0.2458  0.0314
  508CHL1   H2565872   8.877   2.281   4.164 -0.0477  0.1105 -1.8465
  508CHL1   C2665873   8.883   2.081   4.210 -0.0350 -0.0872 -0.3947
  508CHL1  H26A65874   8.958   2.002   4.231 -1.2543 -2.5204 -4.2636
  508CHL1  H26B65875   8.829   2.088   4.307  1.7393 -1.4093  0.7522
  508CHL1  H26C65876   8.829   2.053   4.117 -0.7974  0.2515 -0.0663
  508CHL1   C2765877   9.035   2.261   4.314 -0.0435  0.5598  0.2100
  508CHL1  H27A65878   9.005   2.215   4.411 -0.7923 -0.8985 -0.6877
  508CHL1  H27B65879   9.144   2.243   4.304 -0.1997  0.0444 -0.6233
  508CHL1  H27C65880   9.024   2.370   4.328  1.7561  1.0181 -1.5808
  509CHL1    C365881  10.312   2.695   2.721  0.1339 -0.3725  0.7601
  509CHL1    H365882  10.419   2.721   2.738  0.1715 -0.2637  0.3810
  509CHL1    O365883  10.286   2.689   2.581  0.5656 -0.3819 -0.3449
  509CHL1   H3'65884  10.312   2.776   2.547 -2.8395  1.0408  0.2684
  509CHL1    C465885  10.256   2.573   2.791  0.2995  0.1352 -0.0386
  509CHL1   H4A65886  10.146   2.560   2.778  0.0411  0.5825  1.5600
  509CHL1   H4B65887  10.302   2.483   2.744  1.1411 -0.6087  2.0769
  509CHL1    C565888  10.283   2.581   2.938  0.4895  0.6918  0.1778
  509CHL1    C665889  10.351   2.482   3.001 -1.0073  0.2709 -0.4390
  509CHL1    H665890  10.379   2.392   2.945 -4.7441 -0.9351 -0.6892
  509CHL1    C765891  10.392   2.481   3.141  0.5138 -0.1996  0.2040
  509CHL1   H7A65892  10.364   2.383   3.186  1.4309 -0.5916 -0.0527
  509CHL1   H7B65893  10.503   2.484   3.144  0.6297 -1.0590 -1.7600
  509CHL1    C865894  10.322   2.591   3.230  0.5196 -0.5371  0.1104
  509CHL1    H865895  10.217   2.560   3.249  0.5453 -1.0697 -0.5793
  509CHL1   C1465896  10.395   2.603   3.367 -0.3575 -0.4380  0.4353
  509CHL1   H1465897  10.502   2.631   3.353 -0.1095 -0.5000  1.9857
  509CHL1   C1565898  10.411   2.474   3.449  0.1731  0.3222 -0.2432
  509CHL1  H15A65899  10.320   2.410   3.454  0.7847 -0.5668 -0.1811
  509CHL1  H15B65900  10.498   2.414   3.414 -1.5804 -1.4758 -1.8792
  509CHL1   C1665901  10.448   2.530   3.593  0.8032 -0.2227 -0.5097
  509CHL1  H16A65902  10.373   2.498   3.669  1.9729  1.9888  1.7183
  509CHL1  H16B65903  10.552   2.510   3.624  0.5156 -0.1923  0.5160
  509CHL1   C1765904  10.441   2.691   3.587  0.8781  0.3709 -0.5780
  509CHL1   H1765905  10.539   2.728   3.551  0.3863  0.3951 -1.9689
  509CHL1   C1365906  10.351   2.715   3.462  0.2378  0.7514  0.0036
  509CHL1   C1865907  10.206   2.690   3.508 -0.1825  0.0549  0.3490
  509CHL1  H18A65908  10.206   2.602   3.576 -0.1005 -1.2855 -1.3219
  509CHL1  H18B65909  10.161   2.778   3.559 -2.1870 -0.9661  0.4298
  509CHL1  H18C65910  10.147   2.659   3.419  0.7463 -1.2794  0.1659
  509CHL1   C1265911  10.350   2.845   3.381  1.0281 -0.3572  0.1122
  509CHL1  H12A65912  10.301   2.925   3.441 -1.3634 -1.7980  0.1989
  509CHL1  H12B65913  10.457   2.871   3.364  1.5087 -2.0343  0.4409
  509CHL1   C1165914  10.270   2.834   3.247 -0.4102 -0.3269  0.3486
  509CHL1  H11A65915  10.163   2.813   3.266 -0.1574 -2.6048 -0.4559
  509CHL1  H11B65916  10.287   2.929   3.191 -0.9565 -1.1320 -1.2445
  509CHL1    C965917  10.319   2.724   3.149 -0.1580  0.2836 -0.0069
  509CHL1    H965918  10.422   2.757   3.123 -0.3987  1.2282  0.1807
  509CHL1   C1065919  10.240   2.708   3.013  0.0077  0.2162  0.7056
  509CHL1   C1965920  10.091   2.703   3.048  0.4296  0.0019 -0.5015
  509CHL1  H19A65921  10.071   2.621   3.119 -2.2148  0.0128 -1.1309
  509CHL1  H19B65922  10.064   2.805   3.084  1.4090 -0.0195  0.3190
  509CHL1  H19C65923  10.029   2.682   2.958  0.5585  1.0672 -0.8529
  509CHL1    C165924  10.274   2.834   2.933 -0.1815  0.3246 -0.4561
  509CHL1   H1A65925  10.214   2.922   2.963 -1.6259  0.1247 -2.5778
  509CHL1   H1B65926  10.383   2.852   2.945  0.3642 -2.3638 -0.5740
  509CHL1    C265927  10.239   2.822   2.787 -0.0660 -0.5555 -0.8688
  509CHL1   H2A65928  10.281   2.909   2.732 -1.4801  0.2550 -0.7101
  509CHL1   H2B65929  10.129   2.818   2.771  0.0519 -0.3542 -1.7979
  509CHL1   C2065930  10.409   2.767   3.712 -0.3660 -0.0295 -0.4446
  509CHL1   H2065931  10.311   2.724   3.744  0.1243  0.9385  2.7349
  509CHL1   C2165932  10.400   2.923   3.693 -1.0575  0.2758  0.1953
  509CHL1  H21A65933  10.374   2.983   3.782 -0.5897 -0.4788  0.8476
  509CHL1  H21B65934  10.304   2.941   3.639 -2.4590 -4.2228  0.7910
  509CHL1  H21C65935  10.496   2.955   3.648 -0.2777 -0.2295  1.4583
  509CHL1   C2265936  10.519   2.743   3.809 -0.2914 -0.2767 -0.4763
  509CHL1  H22A65937  10.543   2.636   3.829  0.5602 -0.4560 -2.2504
  509CHL1  H22B65938  10.620   2.776   3.777 -0.5166  0.5325 -0.3630
  509CHL1   C2365939  10.498   2.810   3.944 -0.0842  0.5215 -0.3161
  509CHL1  H23A65940  10.533   2.915   3.936 -0.7940  0.8012  0.1510
  509CHL1  H23B65941  10.391   2.796   3.968 -0.1170  0.8453 -0.2698
  509CHL1   C2465942  10.578   2.744   4.059  0.1499  0.9501 -0.5748
  509CHL1  H24A65943  10.519   2.651   4.074  0.4304  0.5667 -1.7678
  509CHL1  H24B65944  10.681   2.720   4.025  0.8560  1.7030  0.9006
  509CHL1   C2565945  10.584   2.827   4.193  0.2285 -0.1222 -0.2457
  509CHL1   H2565946  10.484   2.867   4.221 -0.2029 -2.0042  1.1976
  509CHL1   C2665947  10.624   2.725   4.298 -0.2992  0.3897 -0.3582
  509CHL1  H26A65948  10.735   2.723   4.297 -0.2897 -2.0265  0.1203
  509CHL1  H26B65949  10.590   2.761   4.397 -1.0819  3.3097 -1.5813
  509CHL1  H26C65950  10.572   2.632   4.267  1.3579 -0.9905  0.8399
  509CHL1   C2765951  10.679   2.951   4.189  0.7335  0.6463  0.3751
  509CHL1  H27A65952  10.670   3.006   4.286 -2.3763 -0.7175  1.0036
  509CHL1  H27B65953  10.779   2.928   4.148  1.5417  1.0691  2.0174
  509CHL1  H27C65954  10.648   3.024   4.111  0.4345  1.2308  1.0149
  510CHL1    C365955   9.099   9.303   2.678 -0.1386 -0.6091  0.1579
  510CHL1    H365956   9.032   9.215   2.681  0.2656 -0.9282  2.9528
  510CHL1    O365957   9.110   9.379   2.560  0.2413  0.2159  0.0957
  510CHL1   H3'65958   9.029   9.431   2.558  0.6713  0.9165 -2.2450
  510CHL1    C465959   9.066   9.402   2.797 -0.5226  0.2943 -0.1681
  510CHL1   H4A65960   9.120   9.499   2.785  2.4271 -1.0695  1.0411
  510CHL1   H4B65961   8.959   9.433   2.797 -1.5881 -2.9732 -1.3210
  510CHL1    C565962   9.093   9.337   2.933 -0.5822 -0.2344  0.1890
  510CHL1    C665963   9.008   9.343   3.034  0.1655 -0.1081  0.1311
  510CHL1    H665964   8.918   9.405   3.017  0.4922 -0.1614 -2.1814
  510CHL1    C765965   9.023   9.291   3.171  0.1103 -0.2892  0.3887
  510CHL1   H7A65966   8.988   9.368   3.244 -1.3665  1.1631 -1.7342
  510CHL1   H7B65967   8.950   9.210   3.193 -1.2208  0.8769  0.4409
  510CHL1    C865968   9.170   9.269   3.202  0.3129  0.9416  0.5165
  510CHL1    H865969   9.215   9.371   3.208  0.7302  0.9570 -1.8608
  510CHL1   C1465970   9.179   9.188   3.328  0.7025 -0.0104  0.1763
  510CHL1   H1465971   9.114   9.101   3.304  0.1787  0.4078  0.0679
  510CHL1   C1565972   9.118   9.255   3.451 -0.1989  0.3784  0.0948
  510CHL1  H15A65973   9.136   9.364   3.462 -2.6781  0.5899  3.9185
  510CHL1  H15B65974   9.007   9.250   3.452 -0.2883  0.7427 -2.2667
  510CHL1   C1665975   9.181   9.170   3.562  0.3023 -0.1032 -0.0609
  510CHL1  H16A65976   9.249   9.237   3.620  1.6372 -2.7013  1.5854
  510CHL1  H16B65977   9.103   9.125   3.627  0.8395  1.8618  2.1040
  510CHL1   C1765978   9.279   9.062   3.499 -0.0509  0.4796  0.7117
  510CHL1   H1765979   9.206   8.982   3.472  3.2175 -2.0927 -1.2302
  510CHL1   C1365980   9.317   9.135   3.374 -0.1887  0.3604 -0.6144
  510CHL1   C1865981   9.413   9.255   3.408 -0.2050 -0.4621 -0.0485
  510CHL1  H18A65982   9.427   9.316   3.316 -0.3187 -1.9708 -1.0990
  510CHL1  H18B65983   9.361   9.319   3.482  0.8322  0.6505 -0.2509
  510CHL1  H18C65984   9.507   9.218   3.456  0.2977  1.3560  0.4572
  510CHL1   C1265985   9.379   9.058   3.261 -0.0837 -0.0163  0.1806
  510CHL1  H12A65986   9.487   9.035   3.274 -0.2016 -0.4956  0.3215
  510CHL1  H12B65987   9.327   8.961   3.248  0.1206  0.0831 -1.6467
  510CHL1   C1165988   9.376   9.131   3.124  0.1265 -0.4049  0.2928
  510CHL1  H11A65989   9.444   9.217   3.137 -0.7117  0.2565  0.3844
  510CHL1  H11B65990   9.416   9.062   3.047  0.1537  0.1190 -0.1700
  510CHL1    C965991   9.235   9.186   3.088 -0.1648  0.4843  0.8187
  510CHL1    H965992   9.167   9.099   3.073 -1.3747  1.4497  0.5655
  510CHL1   C1065993   9.230   9.266   2.954 -1.1737 -0.2821 -0.3083
  510CHL1   C1965994   9.335   9.384   2.952  0.6688 -0.7292 -0.1532
  510CHL1  H19A65995   9.439   9.347   2.936  1.0211 -0.1761  0.7820
  510CHL1  H19B65996   9.321   9.455   2.868  0.1406  0.8042  1.1866
  510CHL1  H19C65997   9.328   9.455   3.036  0.7610  0.1566 -0.8787
  510CHL1    C165998   9.264   9.178   2.830  0.4308 -0.5807  0.3430
  510CHL1   H1A65999   9.370   9.146   2.832  0.4382 -0.6251 -0.6765
  510CHL1   H1B66000   9.204   9.085   2.846  1.7574 -1.1400  2.4780
  510CHL1    C266001   9.245   9.247   2.699 -0.0786  0.4026 -0.1193
  510CHL1   H2A66002   9.272   9.182   2.613 -1.6400  2.0375 -1.9451
  510CHL1   H2B66003   9.308   9.338   2.689 -0.1259  0.4103 -0.3482
  510CHL1   C2066004   9.386   9.003   3.592  0.2495  0.2466 -0.4509
  510CHL1   H2066005   9.472   9.071   3.611  2.1901 -1.8162 -1.4983
  510CHL1   C2166006   9.448   8.878   3.528 -0.0926 -0.6956  0.5691
  510CHL1  H21A66007   9.507   8.824   3.605  1.5306  2.6424  1.8605
  510CHL1  H21B66008   9.527   8.907   3.455  1.3119  0.4766  2.4576
  510CHL1  H21C66009   9.365   8.815   3.492  0.7529 -0.6635 -1.5883
  510CHL1   C2266010   9.324   8.964   3.729 -0.0949 -0.1496 -0.2571
  510CHL1  H22A66011   9.270   9.044   3.783 -0.7605  0.1994 -1.3939
  510CHL1  H22B66012   9.244   8.892   3.701  0.6302 -1.1748  0.2686
  510CHL1   C2366013   9.420   8.886   3.823  0.0265  0.4307  0.4629
  510CHL1  H23A66014   9.426   8.788   3.770 -1.8588  0.5343 -0.0060
  510CHL1  H23B66015   9.520   8.934   3.822  0.1164  0.2818 -1.7823
  510CHL1   C2466016   9.377   8.870   3.971 -0.1819  0.0560  0.7666
  510CHL1  H24A66017   9.451   8.806   4.024 -0.0064  2.0480  3.0993
  510CHL1  H24B66018   9.393   8.965   4.025  0.5292 -0.7125  1.9574
  510CHL1   C2566019   9.228   8.834   4.006  0.2391  0.3540  0.0442
  510CHL1   H2566020   9.174   8.903   3.937 -0.3192  3.9183  3.6681
  510CHL1   C2666021   9.219   8.684   3.996  0.8894 -0.5629  0.0730
  510CHL1  H26A66022   9.279   8.631   4.073 -1.8519 -1.0402  1.9946
  510CHL1  H26B66023   9.115   8.664   4.028  0.3122  2.4490  0.3435
  510CHL1  H26C66024   9.246   8.652   3.892  3.8029  0.2448  0.4897
  510CHL1   C2766025   9.197   8.871   4.146  0.1029  0.0570  0.2112
  510CHL1  H27A66026   9.266   8.825   4.220 -0.5836 -1.5535 -0.1106
  510CHL1  H27B66027   9.190   8.982   4.152 -0.4027  0.1139 -1.1665
  510CHL1  H27C66028   9.102   8.830   4.187  0.1602 -0.6965 -0.3973
  511CHL1    C366029   5.097   6.286   2.712  0.2219  0.2537  0.1606
  511CHL1    H366030   4.990   6.256   2.720 -0.5091  2.2141 -1.4079
  511CHL1    O366031   5.138   6.261   2.580  0.9395  0.0062  0.7516
  511CHL1   H3'66032   5.218   6.308   2.557  1.6602 -0.3579  2.4051
  511CHL1    C466033   5.110   6.442   2.735 -0.3933  0.1843  0.1090
  511CHL1   H4A66034   5.214   6.467   2.704 -0.0363 -0.1965  0.9528
  511CHL1   H4B66035   5.049   6.491   2.656  1.5780 -1.7124 -2.7728
  511CHL1    C566036   5.077   6.488   2.869 -0.5632  1.1661 -0.4132
  511CHL1    C666037   4.974   6.569   2.902  0.1490 -0.3185 -0.0981
  511CHL1    H666038   4.911   6.614   2.824  0.4365 -1.2258 -0.8662
  511CHL1    C766039   4.936   6.622   3.039  0.5687 -0.2862  0.1373
  511CHL1   H7A66040   4.923   6.732   3.046  0.0724 -0.3976  1.1844
  511CHL1   H7B66041   4.837   6.583   3.071  0.2431  0.2594 -0.1865
  511CHL1    C866042   5.039   6.574   3.143  0.5135 -0.4015  0.4527
  511CHL1    H866043   5.123   6.646   3.140  1.3589 -1.3979 -0.6344
  511CHL1   C1466044   4.968   6.571   3.284 -0.1859 -0.4621 -0.4898
  511CHL1   H1466045   4.890   6.493   3.271  1.7780 -2.2616 -2.0977
  511CHL1   C1566046   4.897   6.700   3.329  0.4139 -0.2753  0.1784
  511CHL1  H15A66047   4.964   6.779   3.290  0.9459 -1.4846 -1.4965
  511CHL1  H15B66048   4.793   6.709   3.291  0.6133 -1.9063 -0.8435
  511CHL1   C1666049   4.890   6.697   3.486  0.2059  0.1252 -0.5578
  511CHL1  H16A66050   4.947   6.786   3.522  0.0147 -0.6636  1.8824
  511CHL1  H16B66051   4.789   6.685   3.530  0.5468  0.8900  0.4823
  511CHL1   C1766052   4.964   6.566   3.523 -0.3730 -0.2423  0.5209
  511CHL1   H1766053   4.887   6.487   3.508  0.6126 -0.7601 -2.5178
  511CHL1   C1366054   5.050   6.530   3.397 -0.5620 -0.1887  0.0870
  511CHL1   C1866055   5.172   6.623   3.401 -0.5596 -0.1157  0.2354
  511CHL1  H18A66056   5.146   6.729   3.422  0.3254  0.3665 -0.9668
  511CHL1  H18B66057   5.235   6.603   3.490 -0.9614 -3.5772 -0.1278
  511CHL1  H18C66058   5.231   6.628   3.306 -1.3792  1.0226 -0.2369
  511CHL1   C1266059   5.095   6.390   3.377  0.7961 -0.8344  0.4287
  511CHL1  H12A66060   5.165   6.358   3.456  2.3215  0.3697 -0.3744
  511CHL1  H12B66061   5.008   6.325   3.399  0.9253 -0.9127  0.7008
  511CHL1   C1166062   5.168   6.374   3.241  0.1771  0.4073  0.4453
  511CHL1  H11A66063   5.260   6.435   3.242 -0.1355  0.8784  0.6680
  511CHL1  H11B66064   5.194   6.267   3.223  0.1248  0.5947 -0.7913
  511CHL1    C966065   5.092   6.432   3.115  0.3120 -0.0854 -0.2885
  511CHL1    H966066   5.004   6.364   3.115 -0.7770  1.2707 -1.5358
  511CHL1   C1066067   5.154   6.418   2.978  0.1801  0.0644 -0.6319
  511CHL1   C1966068   5.294   6.478   2.991 -0.1214  0.3708  0.4184
  511CHL1  H19A66069   5.352   6.485   2.897  0.0676  0.4268  0.5380
  511CHL1  H19B66070   5.285   6.581   3.031  0.4798  0.1857  1.0603
  511CHL1  H19C66071   5.357   6.410   3.053 -0.5917  1.1288  1.7642
  511CHL1    C166072   5.160   6.264   2.946  0.2244 -0.2166 -0.8127
  511CHL1   H1A66073   5.232   6.215   3.015 -1.1786 -2.1265 -0.6346
  511CHL1   H1B66074   5.064   6.214   2.972  1.6876 -1.6561  2.3241
  511CHL1    C266075   5.193   6.216   2.806  0.3083  0.0645 -0.0467
  511CHL1   H2A66076   5.173   6.107   2.798 -1.8973  0.4175  0.1490
  511CHL1   H2B66077   5.297   6.243   2.779 -0.3304  1.7933 -0.9060
  511CHL1   C2066078   5.022   6.546   3.666  0.4663  0.1222  1.3031
  511CHL1   H2066079   5.115   6.487   3.656 -0.2720 -0.7248 -1.3465
  511CHL1   C2166080   4.916   6.469   3.742  0.1286  0.6094 -0.4185
  511CHL1  H21A66081   4.950   6.444   3.845 -1.9274 -2.1948 -0.2800
  511CHL1  H21B66082   4.889   6.378   3.684 -0.5585 -0.0039  0.8039
  511CHL1  H21C66083   4.818   6.522   3.749 -0.4719 -0.6145  1.4521
  511CHL1   C2266084   5.056   6.675   3.749 -0.0178 -0.4616 -0.7158
  511CHL1  H22A66085   5.118   6.731   3.676  1.0392 -1.4231 -0.5771
  511CHL1  H22B66086   4.963   6.734   3.768 -0.8699 -1.4772 -1.5407
  511CHL1   C2366087   5.134   6.657   3.878  0.2895 -0.3375 -0.9643
  511CHL1  H23A66088   5.059   6.629   3.955  0.9989 -0.2854 -0.2378
  511CHL1  H23B66089   5.201   6.569   3.868  0.4113 -0.3620 -0.0133
  511CHL1   C2466090   5.209   6.789   3.916  0.1130 -0.3862  0.2906
  511CHL1  H24A66091   5.264   6.815   3.823 -0.6465  0.0343 -0.0548
  511CHL1  H24B66092   5.134   6.870   3.933  0.9610  0.5292 -0.2024
  511CHL1   C2566093   5.314   6.770   4.027  0.0401  0.7926  0.7032
  511CHL1   H2566094   5.264   6.714   4.108  1.0126 -0.3891  0.5137
  511CHL1   C2666095   5.432   6.676   3.981 -0.0929  0.0429 -0.1722
  511CHL1  H26A66096   5.399   6.575   3.950 -2.6421  0.4992  0.7963
  511CHL1  H26B66097   5.488   6.727   3.900 -0.0140  0.6175  0.2313
  511CHL1  H26C66098   5.502   6.660   4.065  2.1247  2.1190 -1.4840
  511CHL1   C2766099   5.362   6.902   4.088 -0.1213 -0.0256  0.0948
  511CHL1  H27A66100   5.274   6.969   4.103 -0.5595 -0.5014 -0.3365
  511CHL1  H27B66101   5.418   6.888   4.184  2.5265 -1.0704 -1.4805
  511CHL1  H27C66102   5.431   6.943   4.011  0.5975 -1.1598  0.1167
  512CHL1    C366103   4.491   4.561   2.414 -0.1210 -0.0805 -0.6314
  512CHL1    H366104   4.503   4.671   2.411  0.5189 -0.1566 -1.3554
  512CHL1    O366105   4.536   4.510   2.295 -0.3677 -0.2981 -0.0092
  512CHL1   H3'66106   4.476   4.547   2.230 -1.6741  0.7485  1.7088
  512CHL1    C466107   4.578   4.498   2.533  0.3884 -0.2576  0.2297
  512CHL1   H4A66108   4.565   4.388   2.528  0.4323 -0.2963  0.8762
  512CHL1   H4B66109   4.686   4.518   2.519  0.2926  0.9690  1.0765
  512CHL1    C566110   4.532   4.557   2.666  0.2006  0.1291 -0.0127
  512CHL1    C666111   4.616   4.626   2.740 -0.0331 -0.1018 -0.1872
  512CHL1    H666112   4.721   4.640   2.711 -0.2724 -1.1847 -1.6826
  512CHL1    C766113   4.581   4.683   2.876 -0.2333 -0.0605  0.0940
  512CHL1   H7A66114   4.659   4.665   2.953  1.2059  1.1075 -1.0180
  512CHL1   H7B66115   4.576   4.793   2.862 -1.1263  0.2517  2.3859
  512CHL1    C866116   4.446   4.638   2.931  0.2595  0.3687 -0.0472
  512CHL1    H866117   4.461   4.531   2.957  1.5867 -0.2484 -2.9970
  512CHL1   C1466118   4.401   4.734   3.043  0.5227  0.4978 -0.5711
  512CHL1   H1466119   4.383   4.831   2.990 -1.3087 -0.2183 -1.3387
  512CHL1   C1566120   4.488   4.761   3.163 -0.1654 -0.2620  0.0006
  512CHL1  H15A66121   4.571   4.693   3.194 -0.2494  0.0251  0.8757
  512CHL1  H15B66122   4.538   4.856   3.133  1.1766 -1.0583 -0.3916
  512CHL1   C1666123   4.398   4.790   3.280  0.2321  0.2729 -0.4599
  512CHL1  H16A66124   4.404   4.705   3.352  1.4375 -2.1468 -3.2229
  512CHL1  H16B66125   4.425   4.888   3.324  0.1979  0.1954 -0.2647
  512CHL1   C1766126   4.251   4.792   3.220 -0.0704  0.3851  0.1901
  512CHL1   H1766127   4.233   4.895   3.181  1.7337  0.3677 -0.7825
  512CHL1   C1366128   4.259   4.700   3.094 -0.3040  0.7788 -0.1396
  512CHL1   C1866129   4.261   4.550   3.152 -0.7771 -0.0489  0.0783
  512CHL1  H18A66130   4.320   4.540   3.245  0.6689  1.9281 -0.5622
  512CHL1  H18B66131   4.158   4.511   3.168 -1.8460  2.8937  0.9398
  512CHL1  H18C66132   4.310   4.483   3.078  1.6900  0.8541  0.7980
  512CHL1   C1266133   4.160   4.722   2.978  0.3595 -0.0644 -0.0548
  512CHL1  H12A66134   4.061   4.695   3.020  0.7494  0.8118  1.4843
  512CHL1  H12B66135   4.154   4.829   2.950  1.0841  0.2010  0.7506
  512CHL1   C1166136   4.193   4.629   2.861 -0.2283 -0.6901 -0.3930
  512CHL1  H11A66137   4.189   4.522   2.892 -0.4579 -1.6219 -3.3067
  512CHL1  H11B66138   4.118   4.630   2.779 -0.8840  1.4779  0.1603
  512CHL1    C966139   4.343   4.641   2.812  0.3467  0.0223 -0.6526
  512CHL1    H966140   4.364   4.740   2.767  2.0306 -0.3837 -0.8437
  512CHL1   C1066141   4.383   4.542   2.693  0.6618 -0.5051 -0.0333
  512CHL1   C1966142   4.359   4.390   2.732 -0.5181 -0.3555 -0.5179
  512CHL1  H19A66143   4.254   4.371   2.701  0.2204 -0.9841 -2.8280
  512CHL1  H19B66144   4.418   4.323   2.666  0.0205 -1.5259  1.0900
  512CHL1  H19C66145   4.369   4.368   2.840 -2.3241  0.5466 -0.1312
  512CHL1    C166146   4.301   4.576   2.571  0.8754 -0.6594  0.2653
  512CHL1   H1A66147   4.201   4.529   2.583  0.3425  0.5348  0.6276
  512CHL1   H1B66148   4.288   4.686   2.563  3.2399 -0.2936  0.7014
  512CHL1    C266149   4.351   4.521   2.439 -0.2747 -0.1428 -0.1150
  512CHL1   H2A66150   4.286   4.561   2.358 -2.9873  0.6471  2.3124
  512CHL1   H2B66151   4.330   4.412   2.438 -0.8308 -0.0985 -2.9197
  512CHL1   C2066152   4.141   4.774   3.325  0.0926  0.2821 -0.0052
  512CHL1   H2066153   4.174   4.681   3.376  3.3796  1.3031  0.0167
  512CHL1   C2166154   4.000   4.749   3.270  0.3162  0.3901 -0.6080
  512CHL1  H21A66155   4.008   4.650   3.218  1.2330  0.2272 -0.1862
  512CHL1  H21B66156   3.975   4.835   3.204 -2.2708 -0.7451 -1.2083
  512CHL1  H21C66157   3.937   4.755   3.361 -0.7542 -0.5891 -1.2642
  512CHL1   C2266158   4.147   4.888   3.435  0.2768 -0.7433  0.5543
  512CHL1  H22A66159   4.206   4.971   3.390 -0.3106 -1.8091 -2.4113
  512CHL1  H22B66160   4.045   4.920   3.464  0.1501 -1.1319  0.5469
  512CHL1   C2366161   4.207   4.854   3.570 -0.0382 -0.0468  0.4058
  512CHL1  H23A66162   4.150   4.769   3.613 -0.4496 -0.7347 -1.4158
  512CHL1  H23B66163   4.306   4.809   3.550 -0.4050 -1.0221  0.7091
  512CHL1   C2466164   4.207   4.968   3.673  1.2180 -0.1650 -0.1733
  512CHL1  H24A66165   4.256   5.060   3.635  1.7811  0.0583  1.0419
  512CHL1  H24B66166   4.101   4.981   3.702  0.3100 -1.8155 -2.4472
  512CHL1   C2566167   4.285   4.911   3.800  0.6408 -0.3439  0.0524
  512CHL1   H2566168   4.229   4.823   3.838 -0.8230  0.7750  0.5673
  512CHL1   C2666169   4.434   4.893   3.778 -0.7299 -0.2538 -0.0490
  512CHL1  H26A66170   4.484   4.989   3.752 -2.9137  1.0338  0.2512
  512CHL1  H26B66171   4.467   4.849   3.875 -0.8333 -0.3971 -0.0781
  512CHL1  H26C66172   4.452   4.819   3.697  0.9767 -1.9779  1.7938
  512CHL1   C2766173   4.269   5.005   3.919 -0.4814  0.1261  0.4971
  512CHL1  H27A66174   4.351   4.994   3.994  0.4019  0.6561 -0.3671
  512CHL1  H27B66175   4.276   5.112   3.891  1.1636  0.0318  0.4280
  512CHL1  H27C66176   4.175   4.989   3.975  0.1133  0.7575  1.7513
  513CHL1    C366177  10.715   2.736   2.850 -1.0516  0.2337  0.7287
  513CHL1    H366178  10.629   2.802   2.874 -1.3446  0.4237 -0.7489
  513CHL1    O366179  10.704   2.658   2.729 -0.1428  0.4012 -0.0707
  513CHL1   H3'66180  10.697   2.728   2.664 -2.5393  0.4886  0.1893
  513CHL1    C466181  10.845   2.821   2.841  0.9515 -0.3240 -0.1301
  513CHL1   H4A66182  10.919   2.747   2.803  1.4907 -0.8318  1.7919
  513CHL1   H4B66183  10.831   2.893   2.757  3.6808 -2.8119 -2.9862
  513CHL1    C566184  10.888   2.880   2.982  0.5925 -0.1958  0.4718
  513CHL1    C666185  10.917   3.009   2.991  0.1014  0.2344 -0.0347
  513CHL1    H666186  10.935   3.069   2.900  0.6357  2.6363  1.5641
  513CHL1    C766187  10.958   3.085   3.120 -0.4465 -0.4620  0.0550
  513CHL1   H7A66188  11.053   3.142   3.111 -0.1054 -1.0632 -0.2374
  513CHL1   H7B66189  10.878   3.157   3.151  0.4221  0.4853  0.1543
  513CHL1    C866190  10.970   2.984   3.247 -0.0299 -0.5267 -0.6250
  513CHL1    H866191  11.070   2.936   3.244  1.0181  1.4498  0.6790
  513CHL1   C1466192  10.958   3.062   3.376  0.1734  0.1910  0.1761
  513CHL1   H1466193  10.851   3.093   3.375 -0.0221 -0.3502 -2.4801
  513CHL1   C1566194  11.057   3.175   3.404 -0.1839 -0.5293  0.2374
  513CHL1  H15A66195  11.158   3.129   3.396 -0.5699 -1.2916 -0.5051
  513CHL1  H15B66196  11.040   3.259   3.334  0.0987 -0.4342  0.2827
  513CHL1   C1666197  11.034   3.209   3.551 -0.8819 -0.1080  0.2713
  513CHL1  H16A66198  11.133   3.228   3.596 -0.4404  3.4177 -1.8298
  513CHL1  H16B66199  10.982   3.306   3.568 -0.7103 -0.2334  1.6425
  513CHL1   C1766200  10.951   3.097   3.614 -0.5027 -0.7370  0.9869
  513CHL1   H1766201  10.851   3.146   3.610  0.5969  1.9032  3.0315
  513CHL1   C1366202  10.957   2.982   3.507  0.1670  0.0580 -0.1719
  513CHL1   C1866203  11.092   2.903   3.536 -0.4883 -0.7048 -0.2788
  513CHL1  H18A66204  11.087   2.849   3.633 -1.4752  0.2554  0.2274
  513CHL1  H18B66205  11.114   2.820   3.466  2.2949 -1.0362  0.8961
  513CHL1  H18C66206  11.177   2.975   3.533 -0.5122 -0.7016 -1.1272
  513CHL1   C1266207  10.837   2.887   3.505  0.2464 -0.6386  0.5913
  513CHL1  H12A66208  10.834   2.829   3.599  0.0457 -0.8997  0.4245
  513CHL1  H12B66209  10.746   2.952   3.504 -0.7559 -2.0060  0.2153
  513CHL1   C1166210  10.842   2.794   3.377  0.0887 -0.3498 -0.0612
  513CHL1  H11A66211  10.925   2.721   3.391 -2.0123 -3.0413 -0.6810
  513CHL1  H11B66212  10.748   2.736   3.376 -0.6278  0.7809  0.2558
  513CHL1    C966213  10.863   2.877   3.243 -0.3595  0.1865  0.1566
  513CHL1    H966214  10.775   2.945   3.238 -0.5156  0.0643  1.0429
  513CHL1   C1066215  10.867   2.799   3.105 -0.2187  0.5706 -0.2802
  513CHL1   C1966216  10.994   2.706   3.109  0.1695 -0.1309 -0.3730
  513CHL1  H19A66217  10.981   2.647   3.202 -1.3190  0.8995  0.1217
  513CHL1  H19B66218  10.997   2.635   3.024  0.3111 -0.4655 -0.0934
  513CHL1  H19C66219  11.090   2.762   3.113  1.0471 -1.6572  0.7154
  513CHL1    C166220  10.743   2.712   3.090  0.2597  0.2867  0.9058
  513CHL1   H1A66221  10.745   2.632   3.167 -2.1597 -0.2746  0.4608
  513CHL1   H1B66222  10.655   2.780   3.097  0.6099  0.8743 -0.2147
  513CHL1    C266223  10.728   2.638   2.955  0.5443  0.3442 -0.4205
  513CHL1   H2A66224  10.633   2.580   2.954  1.3914 -1.0756 -0.6622
  513CHL1   H2B66225  10.813   2.567   2.949 -0.2899 -1.0806  2.6158
  513CHL1   C2066226  10.985   3.066   3.756  0.4635  0.0248  0.3414
  513CHL1   H2066227  10.968   2.957   3.776 -2.3781  0.4937  0.9778
  513CHL1   C2166228  10.876   3.131   3.843 -0.1282  0.1458 -0.1998
  513CHL1  H21A66229  10.891   3.100   3.949 -1.0701  1.9984  0.5164
  513CHL1  H21B66230  10.776   3.092   3.813  0.6877 -0.3218 -2.5246
  513CHL1  H21C66231  10.851   3.238   3.827  0.2566  0.1706 -0.6548
  513CHL1   C2266232  11.134   3.081   3.806 -0.3303 -0.1149  0.4953
  513CHL1  H22A66233  11.206   3.063   3.724  0.6366  1.8821  0.8549
  513CHL1  H22B66234  11.143   3.184   3.847  2.8024 -0.7708  1.7105
  513CHL1   C2366235  11.163   2.977   3.912 -0.4141  0.5360 -0.2368
  513CHL1  H23A66236  11.080   2.964   3.984  0.0278  0.8273  0.3320
  513CHL1  H23B66237  11.178   2.879   3.861  1.2921  0.9448 -0.6048
  513CHL1   C2466238  11.297   3.004   3.979  0.1606 -0.4653 -0.7627
  513CHL1  H24A66239  11.375   3.032   3.905 -1.3666  2.2649 -1.4777
  513CHL1  H24B66240  11.291   3.082   4.058  1.0077 -2.0774  0.9739
  513CHL1   C2566241  11.341   2.886   4.064 -0.1843 -0.3209  0.4301
  513CHL1   H2566242  11.251   2.848   4.116  2.5707 -3.9656  3.0813
  513CHL1   C2666243  11.388   2.760   3.979  0.0587 -0.1102 -0.1155
  513CHL1  H26A66244  11.480   2.787   3.924 -0.7338  0.8953 -0.9886
  513CHL1  H26B66245  11.396   2.684   4.060 -1.2745  1.8593  1.9758
  513CHL1  H26C66246  11.315   2.739   3.898 -0.4372 -2.0200  0.7750
  513CHL1   C2766247  11.432   2.910   4.189 -0.1886 -0.3070  0.1908
  513CHL1  H27A66248  11.535   2.912   4.145 -0.8738  1.1037 -1.5046
  513CHL1  H27B66249  11.428   3.006   4.244  1.3113 -1.3847  2.2901
  513CHL1  H27C66250  11.412   2.836   4.269  0.6193  0.6455  1.2963
  514CHL1    C366251   6.835   7.676   2.888  0.2350  0.3227 -0.7143
  514CHL1    H366252   6.747   7.713   2.946  0.9307 -1.7550  1.8347
  514CHL1    O366253   6.821   7.715   2.751  0.0060  0.0018 -0.7397
  514CHL1   H3'66254   6.894   7.671   2.706 -0.0424 -1.4260  0.5002
  514CHL1    C466255   6.961   7.741   2.953 -0.2225  0.0905 -0.2666
  514CHL1   H4A66256   7.050   7.706   2.896  0.2387  0.8295 -0.0061
  514CHL1   H4B66257   6.956   7.849   2.929 -1.3070 -0.3472 -2.2669
  514CHL1    C566258   6.967   7.702   3.099 -0.2926 -0.3207 -0.3362
  514CHL1    C666259   6.980   7.795   3.194  0.2481  0.1267 -0.0932
  514CHL1    H666260   6.994   7.897   3.156  0.3155  0.3856  0.6196
  514CHL1    C766261   6.984   7.765   3.337  0.2028 -0.2083 -1.1845
  514CHL1   H7A66262   7.050   7.842   3.383 -0.3667  0.2261 -1.0803
  514CHL1   H7B66263   6.883   7.773   3.384  0.2033  3.2299 -1.4934
  514CHL1    C866264   7.039   7.626   3.370  0.1505 -0.6699  0.4382
  514CHL1    H866265   7.144   7.623   3.333 -0.0330  1.3321 -0.4122
  514CHL1   C1466266   7.024   7.596   3.516  0.3635  0.0642 -0.2568
  514CHL1   H1466267   6.916   7.605   3.543 -0.0608 -1.7166 -1.1912
  514CHL1   C1566268   7.095   7.694   3.615 -0.7655 -0.0642  0.7157
  514CHL1  H15A66269   7.199   7.710   3.579 -1.2880 -0.5087 -1.0666
  514CHL1  H15B66270   7.047   7.794   3.624  1.9136  1.1265  3.7931
  514CHL1   C1666271   7.085   7.611   3.741 -0.2010 -0.4097 -0.5372
  514CHL1  H16A66272   7.190   7.600   3.777 -0.3734 -2.6550 -0.5874
  514CHL1  H16B66273   7.037   7.664   3.827  0.8480  0.5675 -0.5277
  514CHL1   C1766274   7.031   7.468   3.705  0.7810  0.1793  0.3014
  514CHL1   H1766275   6.921   7.473   3.715  0.4870 -0.0580 -2.1452
  514CHL1   C1366276   7.063   7.454   3.557 -0.1596  0.4323 -0.0167
  514CHL1   C1866277   7.220   7.436   3.539 -0.0872 -0.4567 -0.3113
  514CHL1  H18A66278   7.250   7.331   3.560 -0.5124 -0.3195  1.0293
  514CHL1  H18B66279   7.252   7.475   3.440  0.1485  1.1478  0.3750
  514CHL1  H18C66280   7.283   7.507   3.596 -1.5215  0.3172  0.3454
  514CHL1   C1266281   6.974   7.354   3.484 -0.6070 -0.1575  0.1324
  514CHL1  H12A66282   7.000   7.249   3.512  0.5920  0.7661  2.8360
  514CHL1  H12B66283   6.870   7.375   3.516 -0.7725 -0.3732 -0.2550
  514CHL1   C1166284   6.992   7.380   3.336 -0.2553  0.2257  0.5549
  514CHL1  H11A66285   7.096   7.355   3.305  0.3333 -1.9001  3.7113
  514CHL1  H11B66286   6.918   7.321   3.277 -1.4718  1.3665  0.8984
  514CHL1    C966287   6.960   7.527   3.291 -0.4840  0.2037  0.1371
  514CHL1    H966288   6.856   7.538   3.328 -1.0436 -2.3575 -0.4745
  514CHL1   C1066289   6.963   7.554   3.135  1.1496  1.2156  0.5069
  514CHL1   C1966290   7.085   7.480   3.067  0.1423  0.1312  0.0863
  514CHL1  H19A66291   7.177   7.511   3.121  0.0943  0.7538 -0.1811
  514CHL1  H19B66292   7.090   7.369   3.073  1.5315  0.0365 -1.9068
  514CHL1  H19C66293   7.096   7.499   2.958  1.8624  1.1402  0.3975
  514CHL1    C166294   6.831   7.503   3.063  0.7640 -0.0787 -0.2918
  514CHL1   H1A66295   6.805   7.398   3.088  0.7707 -0.3646 -1.4096
  514CHL1   H1B66296   6.741   7.556   3.101 -2.0364 -2.0160 -3.6133
  514CHL1    C266297   6.822   7.528   2.910 -0.1211 -0.0779 -0.8885
  514CHL1   H2A66298   6.726   7.484   2.874 -0.9784  0.3244  0.8395
  514CHL1   H2B66299   6.906   7.474   2.861 -0.1818  0.1969 -1.2978
  514CHL1   C2066300   7.097   7.369   3.805  0.5461  0.7826  0.8646
  514CHL1   H2066301   7.208   7.376   3.798  0.7902 -1.8261  1.1156
  514CHL1   C2166302   7.067   7.224   3.776  0.0556 -0.5716  0.2725
  514CHL1  H21A66303   7.121   7.158   3.847  2.3772  2.3845  1.4853
  514CHL1  H21B66304   7.109   7.192   3.678  0.0273 -1.2247  0.4633
  514CHL1  H21C66305   6.960   7.196   3.767  0.5756 -2.6861  0.0112
  514CHL1   C2266306   7.059   7.405   3.948 -0.3015 -0.2284  0.0090
  514CHL1  H22A66307   6.989   7.491   3.953  0.4832  0.3480  1.7490
  514CHL1  H22B66308   7.002   7.320   3.991 -0.3288  0.9540  2.4797
  514CHL1   C2366309   7.186   7.434   4.018 -0.8374 -0.7704  0.1561
  514CHL1  H23A66310   7.243   7.518   3.973  0.2236  0.0849  2.8989
  514CHL1  H23B66311   7.167   7.485   4.115  0.3284 -0.6641  0.3442
  514CHL1   C2466312   7.284   7.321   4.048  0.4869  0.5755  1.0299
  514CHL1  H24A66313   7.233   7.235   4.096  1.8003  0.3388  2.0648
  514CHL1  H24B66314   7.314   7.289   3.946 -2.1815  1.3131 -0.0967
  514CHL1   C2566315   7.403   7.362   4.135  0.2901  0.8817 -0.3454
  514CHL1   H2566316   7.362   7.390   4.234 -4.1313  1.6855 -2.1855
  514CHL1   C2666317   7.502   7.250   4.155 -0.1285 -0.1370 -0.0004
  514CHL1  H26A66318   7.593   7.292   4.204  0.2237  0.4135 -1.0815
  514CHL1  H26B66319   7.459   7.177   4.226  1.5755 -1.4866 -0.2976
  514CHL1  H26C66320   7.536   7.202   4.061  2.8913  0.9955  0.3883
  514CHL1   C2766321   7.491   7.470   4.068 -0.1619 -0.6691  0.2230
  514CHL1  H27A66322   7.511   7.438   3.963 -2.5146 -0.6583 -0.2876
  514CHL1  H27B66323   7.435   7.566   4.057 -0.5178 -0.8574  0.3658
  514CHL1  H27C66324   7.589   7.486   4.117 -0.9222  0.1386  1.5443
  515CHL1    C366325   8.667   0.900   2.904 -0.1304  0.2971  0.7123
  515CHL1    H366326   8.623   0.997   2.935 -0.6671 -0.2362  1.6581
  515CHL1    O366327   8.653   0.873   2.767 -0.3906  0.2813  0.2809
  515CHL1   H3'66328   8.687   0.783   2.756  0.7634  0.6921  0.2934
  515CHL1    C466329   8.811   0.918   2.936  0.7731  0.6522 -0.5417
  515CHL1   H4A66330   8.860   0.819   2.921 -1.1105 -0.1523 -1.7162
  515CHL1   H4B66331   8.854   0.997   2.870 -1.8899  2.4980 -0.2271
  515CHL1    C566332   8.833   0.942   3.078 -0.4883  0.3817 -0.3801
  515CHL1    C666333   8.876   1.062   3.121  0.1837  0.4210  0.0784
  515CHL1    H666334   8.916   1.129   3.043 -0.5209 -0.3462 -0.9798
  515CHL1    C766335   8.895   1.111   3.262  0.0840  0.5382  0.1006
  515CHL1   H7A66336   8.995   1.156   3.278 -0.0651  1.1752 -0.7003
  515CHL1   H7B66337   8.806   1.175   3.280 -0.2190 -0.2050  1.3326
  515CHL1    C866338   8.888   0.984   3.358 -0.5165 -0.2401 -0.4116
  515CHL1    H866339   8.980   0.924   3.346  0.2102  0.6682  0.4204
  515CHL1   C1466340   8.868   1.034   3.504  0.2363  0.4033 -0.9131
  515CHL1   H1466341   8.782   1.104   3.507  0.1611  0.3112 -0.9324
  515CHL1   C1566342   8.977   1.133   3.555  0.6792  0.9400 -0.1925
  515CHL1  H15A66343   9.084   1.107   3.538  0.3886 -0.1751 -0.3728
  515CHL1  H15B66344   8.955   1.232   3.510  1.5576  0.8796 -0.7641
  515CHL1   C1666345   8.950   1.141   3.709 -0.3311 -0.0208 -0.1316
  515CHL1  H16A66346   9.045   1.114   3.759 -2.0889 -2.4626  2.2213
  515CHL1  H16B66347   8.935   1.242   3.752 -2.1700  0.4780 -1.7963
  515CHL1   C1766348   8.841   1.030   3.749  0.5664  0.9061  0.8746
  515CHL1   H1766349   8.738   1.071   3.740 -0.3372 -0.9939  1.9008
  515CHL1   C1366350   8.845   0.933   3.619 -0.2389 -0.1440 -0.3466
  515CHL1   C1866351   8.960   0.833   3.643  0.2602 -0.4009  0.9789
  515CHL1  H18A66352   8.985   0.769   3.556 -0.8556  0.1715  0.2091
  515CHL1  H18B66353   9.054   0.891   3.649  0.0072  0.2089 -0.4513
  515CHL1  H18C66354   8.946   0.774   3.736  0.0333  0.1058  1.2769
  515CHL1   C1266355   8.712   0.860   3.581  0.9312 -0.1650  0.0896
  515CHL1  H12A66356   8.675   0.792   3.660 -0.5719  0.5522  0.0319
  515CHL1  H12B66357   8.638   0.942   3.592  1.9502  0.7939  0.0163
  515CHL1   C1166358   8.718   0.804   3.438 -0.6250 -0.4607  0.3818
  515CHL1  H11A66359   8.791   0.726   3.466  0.5470  0.4687  0.0087
  515CHL1  H11B66360   8.618   0.774   3.399  0.5565 -1.1352 -2.2822
  515CHL1    C966361   8.767   0.901   3.323  0.5351 -0.4700  0.0245
  515CHL1    H966362   8.688   0.979   3.325  0.7300 -0.2652  2.2644
  515CHL1   C1066363   8.776   0.842   3.177  0.8992 -0.4347 -0.7300
  515CHL1   C1966364   8.868   0.719   3.194 -0.0124 -0.4370 -0.4363
  515CHL1  H19A66365   8.969   0.739   3.235 -0.0622  0.2732 -0.6558
  515CHL1  H19B66366   8.813   0.642   3.252  0.3826 -0.7785 -0.5112
  515CHL1  H19C66367   8.875   0.672   3.093 -3.1252 -0.7032 -0.6371
  515CHL1    C166368   8.627   0.805   3.136 -0.4957  0.2230  0.0113
  515CHL1   H1A66369   8.592   0.717   3.195  0.2719 -0.4897 -0.5771
  515CHL1   H1B66370   8.568   0.893   3.167  1.3420  0.9618  1.6009
  515CHL1    C266371   8.615   0.785   2.993  0.5626 -0.1734 -0.4682
  515CHL1   H2A66372   8.515   0.762   2.951  1.0582 -0.6749 -1.4091
  515CHL1   H2B66373   8.677   0.698   2.962  0.3038 -1.6617  2.8290
  515CHL1   C2066374   8.861   0.965   3.890  0.6441  0.4995 -0.4388
  515CHL1   H2066375   8.959   0.915   3.878 -0.8316 -2.4031 -1.3752
  515CHL1   C2166376   8.744   0.869   3.908  0.4061  0.8035  0.0264
  515CHL1  H21A66377   8.646   0.917   3.888 -0.4190 -0.0152  1.8651
  515CHL1  H21B66378   8.734   0.841   4.015 -2.7498 -0.0587 -0.4055
  515CHL1  H21C66379   8.748   0.782   3.839 -1.0709 -0.0417  0.9664
  515CHL1   C2266380   8.874   1.073   4.002  0.0994  0.1500  0.0548
  515CHL1  H22A66381   8.970   1.121   3.972 -0.4136  0.0130 -2.0097
  515CHL1  H22B66382   8.798   1.152   3.985  0.3554  0.5467  0.7169
  515CHL1   C2366383   8.884   1.021   4.145 -0.7179  0.1775  0.3297
  515CHL1  H23A66384   8.784   1.003   4.190 -0.5983 -3.2479 -0.5014
  515CHL1  H23B66385   8.933   0.922   4.137 -0.3791  0.2551  1.2903
  515CHL1   C2466386   8.980   1.103   4.238  0.0856 -0.5827 -0.2443
  515CHL1  H24A66387   9.003   1.049   4.332  0.0537 -1.9921 -1.0257
  515CHL1  H24B66388   9.077   1.120   4.185 -1.1015  0.1117 -2.3369
  515CHL1   C2566389   8.932   1.247   4.270  0.3711 -0.1975 -0.1114
  515CHL1   H2566390   8.934   1.301   4.173 -3.7275  0.3591 -0.0543
  515CHL1   C2666391   8.796   1.254   4.332  0.3093 -0.0434  0.2603
  515CHL1  H26A66392   8.720   1.206   4.267 -0.0051 -0.6259  1.0492
  515CHL1  H26B66393   8.795   1.208   4.432 -2.0393  2.8036  1.7048
  515CHL1  H26C66394   8.759   1.359   4.335  1.5228  0.5148 -1.7435
  515CHL1   C2766395   9.034   1.306   4.364 -0.3546 -0.5550 -0.0452
  515CHL1  H27A66396   9.063   1.242   4.450  0.1603  0.4288  0.5244
  515CHL1  H27B66397   9.129   1.314   4.306 -0.3813 -1.5494 -0.2528
  515CHL1  H27C66398   9.002   1.406   4.399  1.2874  0.2895 -0.8475
  516CHL1    C366399   2.949  11.391   2.596  0.5856  0.0280 -0.1627
  516CHL1    H366400   2.975  11.496   2.572  0.0009  0.6027  1.5421
  516CHL1    O366401   2.936  11.322   2.475  0.1511 -0.2692  0.1715
  516CHL1   H3'66402   2.871  11.369   2.423  0.3741  0.4056  0.4806
  516CHL1    C466403   3.064  11.337   2.686 -0.6230 -0.6685 -0.2148
  516CHL1   H4A66404   3.074  11.226   2.691  4.1237 -0.4334  1.0376
  516CHL1   H4B66405   3.157  11.375   2.639 -1.4962  0.0745 -1.3584
  516CHL1    C566406   3.053  11.383   2.829  0.2826 -1.2142  0.2640
  516CHL1    C666407   3.161  11.437   2.893  0.5640 -0.1401 -0.0337
  516CHL1    H666408   3.264  11.434   2.853  1.2685  0.8386  1.6084
  516CHL1    C766409   3.166  11.484   3.036  0.4197  0.7651  0.0026
  516CHL1   H7A66410   3.251  11.436   3.089  0.5018  0.3911 -0.4533
  516CHL1   H7B66411   3.177  11.593   3.052  1.5834  0.6415  0.1175
  516CHL1    C866412   3.043  11.428   3.111 -0.0102  0.0664  0.3253
  516CHL1    H866413   3.062  11.320   3.126  0.2682 -0.0196 -0.5857
  516CHL1   C1466414   3.035  11.504   3.239  0.0747 -1.0732  0.1788
  516CHL1   H1466415   3.006  11.610   3.222  2.9241 -0.4043 -1.1954
  516CHL1   C1566416   3.160  11.525   3.335 -0.0269 -0.1628 -0.3350
  516CHL1  H15A66417   3.241  11.450   3.325  0.1506 -0.0335  0.1266
  516CHL1  H15B66418   3.210  11.622   3.314 -1.8783  0.7700 -0.6670
  516CHL1   C1666419   3.106  11.521   3.481  0.2791  0.0571 -0.3372
  516CHL1  H16A66420   3.134  11.428   3.533  0.5321  0.1546 -0.2980
  516CHL1  H16B66421   3.146  11.607   3.540  0.9652 -1.3283  1.3128
  516CHL1   C1766422   2.952  11.528   3.465  0.6261 -0.0556  0.5199
  516CHL1   H1766423   2.926  11.634   3.447 -0.1186 -0.0008  1.7953
  516CHL1   C1366424   2.923  11.450   3.336  0.5101 -0.0093  0.3336
  516CHL1   C1866425   2.955  11.303   3.357  0.7527  0.3499  0.7705
  516CHL1  H18A66426   2.894  11.260   3.440  0.2876 -0.3511  0.0781
  516CHL1  H18B66427   2.931  11.240   3.269 -2.2406  0.0943  1.6315
  516CHL1  H18C66428   3.062  11.283   3.376  0.5203 -2.3366 -0.3592
  516CHL1   C1266429   2.783  11.455   3.264 -0.2562  0.2602  0.4808
  516CHL1  H12A66430   2.707  11.401   3.325 -1.4147  1.5508  0.2335
  516CHL1  H12B66431   2.758  11.563   3.261  1.7902  0.7586 -0.4638
  516CHL1   C1166432   2.794  11.400   3.126 -0.1653  0.2471 -0.0309
  516CHL1  H11A66433   2.796  11.289   3.122  1.8681  0.2541 -0.0036
  516CHL1  H11B66434   2.701  11.423   3.069 -1.1506 -1.2331  0.8967
  516CHL1    C966435   2.912  11.449   3.035 -0.5548  0.1715  0.6065
  516CHL1    H966436   2.891  11.555   3.012 -0.1793  0.5337  1.8591
  516CHL1   C1066437   2.915  11.381   2.895  0.3078 -0.1666 -0.8082
  516CHL1   C1966438   2.879  11.223   2.908  0.5218  0.5399  0.3797
  516CHL1  H19A66439   2.904  11.165   2.816 -1.0054  0.4844 -0.0185
  516CHL1  H19B66440   2.923  11.179   2.999 -2.0015 -1.8870  0.5421
  516CHL1  H19C66441   2.769  11.224   2.924  0.3098 -1.7140 -0.5244
  516CHL1    C166442   2.812  11.450   2.804 -0.0662 -0.0396  0.2827
  516CHL1   H1A66443   2.719  11.419   2.856 -1.3261  0.0374 -1.7888
  516CHL1   H1B66444   2.837  11.558   2.807  0.8770 -0.2388  0.1323
  516CHL1    C266445   2.811  11.389   2.660 -0.5107  0.4530  0.5364
  516CHL1   H2A66446   2.741  11.447   2.597 -0.2983  0.8306  0.6464
  516CHL1   H2B66447   2.781  11.282   2.662  1.0315  0.0038  0.9470
  516CHL1   C2066448   2.874  11.487   3.584 -0.3433  0.1934 -0.3124
  516CHL1   H2066449   2.838  11.382   3.585  0.2132  0.0011  0.7010
  516CHL1   C2166450   2.744  11.573   3.586 -0.0757 -0.0832  0.6185
  516CHL1  H21A66451   2.696  11.568   3.485  2.4454  2.4812 -0.8579
  516CHL1  H21B66452   2.770  11.680   3.600  1.3450  0.0272 -2.0771
  516CHL1  H21C66453   2.671  11.550   3.666 -0.6470  1.0859  0.4587
  516CHL1   C2266454   2.946  11.500   3.722 -0.0824  0.0960  0.4888
  516CHL1  H22A66455   3.031  11.429   3.733 -0.1998  0.2109  2.4721
  516CHL1  H22B66456   2.996  11.600   3.720 -1.0750  0.7286  3.3513
  516CHL1   C2366457   2.856  11.495   3.841  0.8651  0.5108 -0.5159
  516CHL1  H23A66458   2.925  11.503   3.927  0.8996 -0.0524 -0.4879
  516CHL1  H23B66459   2.792  11.586   3.845  0.8538  0.5073 -0.6002
  516CHL1   C2466460   2.784  11.369   3.868 -0.3886 -0.2100 -0.8858
  516CHL1  H24A66461   2.695  11.369   3.802 -1.0543 -1.7044 -0.0630
  516CHL1  H24B66462   2.854  11.283   3.856  2.1966  1.5940  0.4103
  516CHL1   C2566463   2.715  11.363   4.010 -0.2843  0.2201 -0.3324
  516CHL1   H2566464   2.660  11.266   4.011  1.1710 -0.6313 -0.4234
  516CHL1   C2666465   2.806  11.362   4.130  0.2663 -0.1510 -0.7941
  516CHL1  H26A66466   2.863  11.267   4.139  2.1264  0.9724 -0.2284
  516CHL1  H26B66467   2.881  11.442   4.116 -1.0053  0.8419 -2.3664
  516CHL1  H26C66468   2.757  11.367   4.230  2.1049  1.8158  0.0866
  516CHL1   C2766469   2.606  11.476   4.029 -0.5119  0.0849  0.1839
  516CHL1  H27A66470   2.649  11.578   4.045 -0.7816  0.1049  0.7981
  516CHL1  H27B66471   2.536  11.481   3.943 -0.7322 -3.6205 -0.0205
  516CHL1  H27C66472   2.530  11.451   4.106 -2.1807  3.2688 -0.2615
  517CHL1    C366473   4.481   1.440   2.521 -0.5273 -0.4021 -0.3052
  517CHL1    H366474   4.482   1.334   2.488  1.8273 -0.5322  0.0677
  517CHL1    O366475   4.529   1.510   2.413  0.5538 -0.6533 -0.4083
  517CHL1   H3'66476   4.540   1.601   2.441 -1.5566 -0.0841 -1.2190
  517CHL1    C466477   4.335   1.479   2.553  0.4756  0.1716 -0.5186
  517CHL1   H4A66478   4.314   1.587   2.573  0.0716 -0.1641  0.9488
  517CHL1   H4B66479   4.274   1.475   2.459 -0.0314  1.9288 -0.3124
  517CHL1    C566480   4.275   1.398   2.673  0.0506 -0.3404  0.2150
  517CHL1    C666481   4.176   1.313   2.659  0.2743 -0.0219  0.5161
  517CHL1    H666482   4.115   1.325   2.568  0.3643 -0.8699  0.3373
  517CHL1    C766483   4.123   1.231   2.771  0.0599  0.2000 -0.1256
  517CHL1   H7A66484   4.013   1.237   2.764  0.2070  1.1317 -2.0071
  517CHL1   H7B66485   4.149   1.125   2.748  0.0496  0.8111 -3.3180
  517CHL1    C866486   4.169   1.288   2.905  0.1394  0.5035  0.0340
  517CHL1    H866487   4.122   1.387   2.923  1.0602  1.1340 -0.9243
  517CHL1   C1466488   4.143   1.188   3.016  0.0986 -0.0019  0.0748
  517CHL1   H1466489   4.215   1.104   3.005  0.0144 -0.1576  0.6616
  517CHL1   C1566490   4.009   1.109   3.013 -0.1643  0.0475 -0.3564
  517CHL1  H15A66491   3.936   1.186   2.980 -1.2203 -0.2272  1.2796
  517CHL1  H15B66492   4.019   1.020   2.947 -2.7628 -1.5346  1.2379
  517CHL1   C1666493   3.989   1.063   3.161 -0.1501  0.5144 -0.6234
  517CHL1  H16A66494   3.889   1.100   3.195 -0.0239 -1.3415  2.0720
  517CHL1  H16B66495   3.983   0.953   3.167 -0.9357  0.5275 -1.0198
  517CHL1   C1766496   4.118   1.109   3.244 -0.2578  0.3193  0.2216
  517CHL1   H1766497   4.196   1.034   3.220  0.4281  0.9293  0.5123
  517CHL1   C1366498   4.167   1.227   3.157  0.1949 -0.3571 -0.0455
  517CHL1   C1866499   4.088   1.348   3.201 -1.0132 -0.0459 -0.1063
  517CHL1  H18A66500   4.112   1.432   3.132  1.2554  0.5311  1.2674
  517CHL1  H18B66501   3.981   1.320   3.207 -1.0517  0.1949  0.3855
  517CHL1  H18C66502   4.127   1.376   3.301 -1.2796 -0.7259  0.1921
  517CHL1   C1266503   4.322   1.261   3.169 -0.1410 -0.2012  0.6238
  517CHL1  H12A66504   4.356   1.289   3.271  1.5335 -0.1070  0.0802
  517CHL1  H12B66505   4.367   1.165   3.135  0.1234  0.9942 -2.7705
  517CHL1   C1166506   4.361   1.366   3.060 -0.4099  0.4932 -0.1556
  517CHL1  H11A66507   4.320   1.465   3.090  0.9020  1.0430 -0.1112
  517CHL1  H11B66508   4.471   1.373   3.064 -0.4268  0.1123  1.7386
  517CHL1    C966509   4.320   1.329   2.911 -0.5858 -0.4166  0.3502
  517CHL1    H966510   4.379   1.236   2.897  0.4698  0.4623 -1.3495
  517CHL1   C1066511   4.360   1.424   2.804  0.3460  0.0048 -0.3051
  517CHL1   C1966512   4.327   1.568   2.856 -0.7343 -1.2337  0.7636
  517CHL1  H19A66513   4.341   1.643   2.776  0.7001 -1.0150  1.1902
  517CHL1  H19B66514   4.221   1.565   2.888 -0.6258 -0.0765  1.2791
  517CHL1  H19C66515   4.396   1.591   2.941 -1.6130  0.6183  1.0120
  517CHL1    C166516   4.510   1.405   2.771 -0.8346 -0.3444  0.4922
  517CHL1   H1A66517   4.566   1.456   2.852  1.0076  0.4833 -1.2146
  517CHL1   H1B66518   4.542   1.298   2.765  0.7112  0.1017  0.4640
  517CHL1    C266519   4.567   1.475   2.642 -0.0994  0.6233 -0.3152
  517CHL1   H2A66520   4.664   1.428   2.617  0.5182  1.3273  0.6579
  517CHL1   H2B66521   4.565   1.585   2.658 -0.7269  0.5447  0.1878
  517CHL1   C2066522   4.094   1.118   3.400  0.0073 -0.1842 -0.4703
  517CHL1   H2066523   4.007   1.187   3.402 -0.7222 -1.0087  2.9666
  517CHL1   C2166524   4.209   1.187   3.487  0.8160  0.4278 -0.3010
  517CHL1  H21A66525   4.192   1.178   3.596 -1.7787 -0.6360 -0.7195
  517CHL1  H21B66526   4.226   1.294   3.463  0.9713  0.2777 -0.8786
  517CHL1  H21C66527   4.304   1.141   3.454  1.7035  1.3728  0.8768
  517CHL1   C2266528   4.068   0.976   3.459  0.8216 -0.2382 -0.7967
  517CHL1  H22A66529   3.997   0.911   3.402  1.5074 -3.7835  2.0385
  517CHL1  H22B66530   4.163   0.920   3.450  0.0523 -1.6193 -0.5241
  517CHL1   C2366531   3.996   0.979   3.598 -0.5664 -0.7012 -0.3315
  517CHL1  H23A66532   4.046   1.055   3.662 -1.1542 -0.0839 -0.5921
  517CHL1  H23B66533   3.889   1.011   3.595 -0.3115  0.1734 -0.3608
  517CHL1   C2466534   4.004   0.842   3.672  0.2556 -0.5629  0.7942
  517CHL1  H24A66535   4.113   0.823   3.686  0.5056  0.7114  0.7016
  517CHL1  H24B66536   3.969   0.852   3.777 -0.2068 -0.0955  0.6016
  517CHL1   C2566537   3.941   0.723   3.594 -0.4948  0.3761 -0.8953
  517CHL1   H2566538   3.986   0.726   3.492 -0.3853  1.5566 -0.8361
  517CHL1   C2666539   3.985   0.591   3.667  0.1950  0.2943  0.2721
  517CHL1  H26A66540   3.966   0.596   3.776  0.3799 -2.3467  0.4693
  517CHL1  H26B66541   3.929   0.505   3.625  0.6223 -0.4098  1.1105
  517CHL1  H26C66542   4.094   0.574   3.650  0.1870 -0.4120  0.8965
  517CHL1   C2766543   3.788   0.735   3.590  0.1759 -0.3088 -0.1076
  517CHL1  H27A66544   3.750   0.761   3.691 -0.3724 -2.7582  0.3810
  517CHL1  H27B66545   3.769   0.821   3.522  1.3376 -0.3763 -0.5343
  517CHL1  H27C66546   3.739   0.644   3.548  2.2751 -1.8718  0.6799
  518CHL1    C366547  10.513   1.390   2.316 -0.5983 -0.2659  0.0611
  518CHL1    H366548  10.491   1.493   2.352 -1.1690 -0.9088  1.6483
  518CHL1    O366549  10.454   1.383   2.186  0.5681  0.1823  0.0841
  518CHL1   H3'66550  10.434   1.292   2.166 -1.1434  0.8399 -1.4955
  518CHL1    C466551  10.663   1.366   2.306  0.0664  0.1674  0.0285
  518CHL1   H4A66552  10.679   1.266   2.262 -3.9218 -1.6307  2.1416
  518CHL1   H4B66553  10.700   1.447   2.240 -1.6393  0.5894 -0.4513
  518CHL1    C566554  10.739   1.355   2.435  0.0470  0.1233 -0.0304
  518CHL1    C666555  10.847   1.436   2.463  0.0560  0.6105  0.1626
  518CHL1    H666556  10.884   1.495   2.378 -1.7385  1.4234 -0.0890
  518CHL1    C766557  10.929   1.434   2.593 -0.1318  0.7019 -0.3102
  518CHL1   H7A66558  11.038   1.424   2.576 -0.2371  0.7582 -1.0702
  518CHL1   H7B66559  10.928   1.538   2.633  0.6362  0.4736  0.3184
  518CHL1    C866560  10.882   1.318   2.690  0.2523 -0.2177  0.4694
  518CHL1    H866561  10.937   1.226   2.661  0.5602  0.2613 -0.4984
  518CHL1   C1466562  10.909   1.356   2.832 -0.0986  0.4342  0.0830
  518CHL1   H1466563  10.845   1.447   2.842 -2.3839 -1.1356  0.6016
  518CHL1   C1566564  11.054   1.407   2.870  0.7074  1.0440  0.1753
  518CHL1  H15A66565  11.120   1.335   2.818 -0.5300 -1.2268  1.5812
  518CHL1  H15B66566  11.073   1.506   2.824  1.6981  0.3887 -0.8939
  518CHL1   C1666567  11.061   1.394   3.017  0.0223 -0.0603 -0.1195
  518CHL1  H16A66568  11.150   1.331   3.035 -0.3218 -0.7857 -0.8946
  518CHL1  H16B66569  11.074   1.496   3.058 -1.2170 -0.0330  0.2503
  518CHL1   C1766570  10.925   1.329   3.069  0.2381 -0.3716 -0.0413
  518CHL1   H1766571  10.858   1.415   3.090  2.0348  0.9738  0.4557
  518CHL1   C1366572  10.871   1.257   2.946 -0.3804  0.3000  0.8562
  518CHL1   C1866573  10.942   1.122   2.926 -0.3036 -0.1284  0.3217
  518CHL1  H18A66574  11.053   1.135   2.927 -0.4165  0.9407  0.5507
  518CHL1  H18B66575  10.901   1.052   3.002  0.8176 -0.6377  0.4785
  518CHL1  H18C66576  10.935   1.071   2.827  0.8682  1.1983 -0.4772
  518CHL1   C1266577  10.715   1.244   2.935 -0.5751  0.6243  0.8406
  518CHL1  H12A66578  10.661   1.175   3.005  0.2652 -0.8163  0.1214
  518CHL1  H12B66579  10.684   1.347   2.960 -2.9002 -0.1647  1.4780
  518CHL1   C1166580  10.665   1.211   2.791 -0.2637  0.3597  0.5787
  518CHL1  H11A66581  10.696   1.107   2.771 -0.5915  0.6681 -1.8514
  518CHL1  H11B66582  10.554   1.222   2.783 -0.2053 -0.1471 -1.4454
  518CHL1    C966583  10.727   1.301   2.679 -0.4604  0.0216  0.8457
  518CHL1    H966584  10.683   1.401   2.702  1.1286  0.7308  0.9562
  518CHL1   C1066585  10.668   1.260   2.539  0.0825  0.2250 -0.2743
  518CHL1   C1966586  10.705   1.115   2.500  0.0300 -0.0500 -0.5071
  518CHL1  H19A66587  10.688   1.086   2.395  0.4952  0.6806 -0.7923
  518CHL1  H19B66588  10.816   1.107   2.509  0.2144  2.8699  1.1286
  518CHL1  H19C66589  10.652   1.041   2.564  1.6819 -1.7830 -1.0476
  518CHL1    C166590  10.521   1.281   2.539 -0.1873 -0.4761  0.2547
  518CHL1   H1A66591  10.478   1.194   2.594  0.5643  0.5873  2.6523
  518CHL1   H1B66592  10.486   1.376   2.584 -0.0315 -0.3173  0.0434
  518CHL1    C266593  10.446   1.283   2.404 -0.1884  0.2288 -0.1069
  518CHL1   H2A66594  10.337   1.298   2.424 -0.4306 -3.3735  2.1693
  518CHL1   H2B66595  10.460   1.185   2.354  0.4750  0.0625  0.3829
  518CHL1   C2066596  10.948   1.248   3.198 -0.8052 -0.3677 -0.3567
  518CHL1   H2066597  11.026   1.170   3.184 -0.1131  0.2667 -0.1080
  518CHL1   C2166598  10.815   1.187   3.248  0.0246  0.1452  0.0938
  518CHL1  H21A66599  10.824   1.127   3.342 -0.6904 -0.7443 -0.3868
  518CHL1  H21B66600  10.772   1.118   3.172  0.9393  1.2460 -1.4814
  518CHL1  H21C66601  10.742   1.267   3.272 -0.5962  0.7732 -3.3900
  518CHL1   C2266602  11.001   1.328   3.322 -0.4518 -0.0908 -0.4057
  518CHL1  H22A66603  11.050   1.418   3.278 -0.6625  0.4394  0.4201
  518CHL1  H22B66604  10.916   1.373   3.377 -1.8929 -0.9068 -1.8615
  518CHL1   C2366605  11.070   1.232   3.422  0.8418 -0.3092  0.5172
  518CHL1  H23A66606  11.000   1.151   3.452 -0.1800  0.9070  1.4919
  518CHL1  H23B66607  11.156   1.184   3.369  0.4985  0.3150 -0.6389
  518CHL1   C2466608  11.107   1.298   3.556  0.2702  1.0460 -0.3000
  518CHL1  H24A66609  11.186   1.373   3.535  0.4841  0.6979 -0.7729
  518CHL1  H24B66610  11.022   1.359   3.592  0.6482  1.3348  0.1031
  518CHL1   C2566611  11.144   1.207   3.674 -0.1899 -0.1506  0.2936
  518CHL1   H2566612  11.054   1.151   3.707 -0.6728 -0.5293 -1.5660
  518CHL1   C2666613  11.250   1.109   3.633  0.2119 -0.0031  0.1898
  518CHL1  H26A66614  11.344   1.162   3.608  0.2507  0.1530  0.6492
  518CHL1  H26B66615  11.266   1.034   3.713 -0.5405  0.3098  0.6527
  518CHL1  H26C66616  11.220   1.052   3.543 -1.0244 -0.7303  1.0221
  518CHL1   C2766617  11.194   1.298   3.791 -0.1283 -0.3230 -0.1020
  518CHL1  H27A66618  11.225   1.245   3.883  0.9286 -0.1545 -0.3489
  518CHL1  H27B66619  11.285   1.354   3.760 -0.1915  0.9112  1.8180
  518CHL1  H27C66620  11.122   1.379   3.817  1.8448  0.9139  1.7510
  519CHL1    C366621   2.965   4.463   2.129  0.0864 -1.0427 -0.0797
  519CHL1    H366622   3.010   4.361   2.124 -0.1800 -1.3951  3.0989
  519CHL1    O366623   2.935   4.504   2.000  0.5009  0.1455  0.0253
  519CHL1   H3'66624   2.915   4.597   2.015  2.2740  0.3343  1.5663
  519CHL1    C466625   2.835   4.447   2.205  0.0149 -0.2134 -0.3809
  519CHL1   H4A66626   2.785   4.547   2.200  0.8211  0.3640  1.8114
  519CHL1   H4B66627   2.769   4.381   2.145  0.0690 -0.4880 -0.1364
  519CHL1    C566628   2.848   4.415   2.353 -0.0706  0.3430  0.1760
  519CHL1    C666629   2.791   4.301   2.401 -0.4042 -0.1463 -0.3573
  519CHL1    H666630   2.715   4.247   2.341 -0.6842  0.9038 -0.9749
  519CHL1    C766631   2.796   4.261   2.542  0.2793  0.1320 -0.2197
  519CHL1   H7A66632   2.694   4.255   2.585  1.3226  1.4555  2.6586
  519CHL1   H7B66633   2.841   4.159   2.539 -0.5091 -0.2234 -0.3299
  519CHL1    C866634   2.870   4.370   2.636  0.4643 -0.2690 -0.1446
  519CHL1    H866635   2.802   4.455   2.657  0.1782 -0.5663  0.1598
  519CHL1   C1466636   2.923   4.298   2.762 -0.1914  0.2359 -0.1867
  519CHL1   H1466637   3.007   4.236   2.725  0.9207  1.5275  0.0648
  519CHL1   C1566638   2.829   4.207   2.841 -0.2019  0.0792 -0.3015
  519CHL1  H15A66639   2.731   4.260   2.845 -0.6362 -0.7091 -0.4284
  519CHL1  H15B66640   2.814   4.113   2.784  2.1773 -0.0070 -0.9093
  519CHL1   C1666641   2.886   4.189   2.979  0.2748 -0.5188  0.0658
  519CHL1  H16A66642   2.820   4.228   3.060  2.5490  0.7719  1.3982
  519CHL1  H16B66643   2.901   4.081   2.995 -1.7073 -0.8339  0.0729
  519CHL1   C1766644   3.015   4.280   2.976 -0.4541  0.5771 -0.3136
  519CHL1   H1766645   3.097   4.215   2.939 -0.2915  1.6687 -2.0023
  519CHL1   C1366646   2.990   4.382   2.865  0.4296 -0.3457  0.0186
  519CHL1   C1866647   2.896   4.493   2.921  0.2374 -0.0847  0.4766
  519CHL1  H18A66648   2.879   4.565   2.838 -1.5582 -2.9348 -1.7883
  519CHL1  H18B66649   2.800   4.444   2.948 -0.2022 -0.0650 -1.0096
  519CHL1  H18C66650   2.940   4.556   3.002  0.2331  2.6851 -1.5048
  519CHL1   C1266651   3.112   4.442   2.787 -0.6536  0.0321 -0.0367
  519CHL1  H12A66652   3.173   4.512   2.847 -1.4754  0.9806 -0.2725
  519CHL1  H12B66653   3.174   4.354   2.758 -1.1119 -0.9654  1.8556
  519CHL1   C1166654   3.078   4.517   2.658 -0.0717 -0.9698 -0.2148
  519CHL1  H11A66655   3.026   4.611   2.688  0.1094 -0.7804 -0.4860
  519CHL1  H11B66656   3.173   4.546   2.609 -0.2035  2.5160  1.2779
  519CHL1    C966657   2.991   4.431   2.564 -0.8658 -0.0684  0.1057
  519CHL1    H966658   3.059   4.348   2.535 -0.2554  0.2581  0.5657
  519CHL1   C1066659   2.951   4.507   2.432  0.1900 -0.8824 -0.1788
  519CHL1   C1966660   2.884   4.645   2.469 -0.0360 -0.0758 -0.1875
  519CHL1  H19A66661   2.940   4.710   2.540  1.1148 -1.6081  0.3457
  519CHL1  H19B66662   2.871   4.703   2.375 -0.4349 -0.5779 -0.4426
  519CHL1  H19C66663   2.784   4.630   2.515 -0.6783  1.1704 -1.0947
  519CHL1    C166664   3.083   4.518   2.345  0.1856  0.0921 -0.8072
  519CHL1   H1A66665   3.156   4.585   2.395  2.4683 -2.0629 -1.0384
  519CHL1   H1B66666   3.129   4.419   2.324 -2.4245 -0.9962 -1.8184
  519CHL1    C266667   3.056   4.560   2.202  0.4967  0.5040  0.4485
  519CHL1   H2A66668   3.155   4.561   2.152  1.3944 -2.1836  1.9639
  519CHL1   H2B66669   3.021   4.665   2.195  1.1003  0.6102 -1.7748
  519CHL1   C2066670   3.060   4.327   3.120  0.9811 -0.2095  0.6477
  519CHL1   H2066671   2.980   4.393   3.159  1.0703  0.4194 -0.1917
  519CHL1   C2166672   3.189   4.408   3.105  0.2817  0.8858 -0.0614
  519CHL1  H21A66673   3.251   4.347   3.036 -0.6935 -0.2452  0.0147
  519CHL1  H21B66674   3.245   4.440   3.195 -2.0887 -0.3105  1.9492
  519CHL1  H21C66675   3.170   4.499   3.045  0.8159  1.0851  0.0712
  519CHL1   C2266676   3.078   4.215   3.226  0.3559  0.4819  0.1615
  519CHL1  H22A66677   3.124   4.266   3.314  0.0067  1.2294 -0.0762
  519CHL1  H22B66678   2.977   4.174   3.246 -0.6283  1.2182 -2.8179
  519CHL1   C2366679   3.178   4.109   3.176  0.1913 -0.6641  0.4731
  519CHL1  H23A66680   3.127   4.048   3.098 -0.2773  0.4822 -0.1474
  519CHL1  H23B66681   3.262   4.155   3.118  0.1188 -3.7746 -2.4087
  519CHL1   C2466682   3.233   4.023   3.295  0.6246 -0.1362  0.0248
  519CHL1  H24A66683   3.310   3.949   3.264 -1.0637 -2.3430  0.8195
  519CHL1  H24B66684   3.280   4.103   3.356  0.2199  0.4394 -0.4012
  519CHL1   C2566685   3.122   3.948   3.370  0.3519  0.4493  0.6860
  519CHL1   H2566686   3.060   4.018   3.429  0.1114 -0.0333  1.0162
  519CHL1   C2666687   3.038   3.848   3.293  0.1163 -0.1528  0.7272
  519CHL1  H26A66688   2.987   3.901   3.209  1.4450  1.2128  0.7353
  519CHL1  H26B66689   3.106   3.779   3.239 -0.3059  0.5548 -0.7939
  519CHL1  H26C66690   2.954   3.801   3.348 -0.0179  0.0170  0.6693
  519CHL1   C2766691   3.182   3.859   3.477  0.2299  0.1331  0.2604
  519CHL1  H27A66692   3.100   3.813   3.536  2.3766 -0.2367  3.1972
  519CHL1  H27B66693   3.249   3.779   3.438 -0.1742 -0.5722  0.9871
  519CHL1  H27C66694   3.243   3.924   3.543 -2.2306  1.6158  1.1872
  520CHL1    C366695   3.947   0.872   2.486 -0.1126  0.2929  0.7270
  520CHL1    H366696   4.029   0.820   2.540 -0.6458 -0.9122  0.4140
  520CHL1    O366697   3.985   0.899   2.348  0.3789  0.0028  0.4555
  520CHL1   H3'66698   4.070   0.856   2.341  1.3853  2.0577 -1.0634
  520CHL1    C466699   3.820   0.784   2.475 -0.2572  0.3946 -0.0696
  520CHL1   H4A66700   3.753   0.848   2.414 -1.3266  1.2602  1.9075
  520CHL1   H4B66701   3.847   0.688   2.426  2.6776  1.1281 -0.0498
  520CHL1    C566702   3.757   0.762   2.614  0.1940  0.4313 -0.3243
  520CHL1    C666703   3.739   0.634   2.668 -0.1155  0.5414  0.5283
  520CHL1    H666704   3.768   0.554   2.598 -0.1964  1.8274 -1.0436
  520CHL1    C766705   3.689   0.607   2.807  0.2693 -0.0421  0.2482
  520CHL1   H7A66706   3.629   0.514   2.801 -0.5672  0.3400  2.1393
  520CHL1   H7B66707   3.774   0.581   2.874  0.2474  1.1980  0.7768
  520CHL1    C866708   3.625   0.730   2.865  0.3666  0.2076  0.0862
  520CHL1    H866709   3.526   0.742   2.815 -0.2030 -2.1329  0.5038
  520CHL1   C1466710   3.592   0.695   3.007 -0.6722 -0.3450  1.2690
  520CHL1   H1466711   3.685   0.681   3.065  0.1677 -0.7935 -0.1476
  520CHL1   C1566712   3.520   0.566   3.043 -0.2488  0.0171  0.3225
  520CHL1  H15A66713   3.432   0.568   2.977 -0.0710 -0.3278  0.0733
  520CHL1  H15B66714   3.578   0.472   3.029  0.6670  0.6722 -0.3569
  520CHL1   C1666715   3.463   0.582   3.183 -0.4731 -0.7030 -0.3179
  520CHL1  H16A66716   3.353   0.574   3.184 -0.7919  2.3660 -1.4238
  520CHL1  H16B66717   3.512   0.512   3.255 -0.8098  1.8928  2.6890
  520CHL1   C1766718   3.497   0.729   3.225  0.3278 -0.0721 -0.2173
  520CHL1   H1766719   3.595   0.724   3.277 -0.3285 -0.4662  1.0231
  520CHL1   C1366720   3.520   0.807   3.087 -0.7853  0.6389  0.8132
  520CHL1   C1866721   3.394   0.856   3.016 -1.0435 -0.1918 -0.5740
  520CHL1  H18A66722   3.352   0.928   3.090  2.1423 -0.0325  1.2903
  520CHL1  H18B66723   3.410   0.897   2.914 -0.4368 -0.5375 -0.6263
  520CHL1  H18C66724   3.327   0.769   3.000 -0.6994 -0.8961  1.5080
  520CHL1   C1266725   3.617   0.928   3.091  0.4172  0.0806  0.7355
  520CHL1  H12A66726   3.575   1.023   3.130 -0.7325  0.8589 -2.1548
  520CHL1  H12B66727   3.707   0.906   3.153 -0.4997 -1.3498  1.6242
  520CHL1   C1166728   3.665   0.975   2.948  0.4764 -0.7572 -0.1862
  520CHL1  H11A66729   3.577   1.030   2.909 -0.2009 -0.5712  1.5161
  520CHL1  H11B66730   3.743   1.052   2.961  0.8693 -0.9190 -1.4260
  520CHL1    C966731   3.713   0.855   2.855  0.3593  0.6192  0.6761
  520CHL1    H966732   3.811   0.822   2.897  0.1042 -1.4329 -0.2267
  520CHL1   C1066733   3.735   0.891   2.705  0.1151 -0.5268  0.3660
  520CHL1   C1966734   3.608   0.967   2.648  0.1451  0.1886 -0.0296
  520CHL1  H19A66735   3.629   1.000   2.544 -0.3617 -1.0838 -0.5530
  520CHL1  H19B66736   3.514   0.907   2.649 -0.3223  0.8903  2.0032
  520CHL1  H19C66737   3.589   1.055   2.713  1.4300  0.4007  0.0828
  520CHL1    C166738   3.868   0.976   2.694  0.5438  1.1283 -0.0084
  520CHL1   H1A66739   3.850   1.067   2.755 -1.4889  0.5410  0.3752
  520CHL1   H1B66740   3.955   0.923   2.738  0.6247 -0.5062 -1.9923
  520CHL1    C266741   3.913   1.008   2.555 -0.1743 -0.0589  0.0004
  520CHL1   H2A66742   4.007   1.065   2.565 -0.2212 -0.1505  1.0963
  520CHL1   H2B66743   3.844   1.076   2.501  2.0608  0.9925 -1.6841
  520CHL1   C2066744   3.395   0.777   3.321  0.4758  0.4707  0.5108
  520CHL1   H2066745   3.297   0.770   3.269 -0.5385  1.6463  2.1980
  520CHL1   C2166746   3.436   0.919   3.376  0.5864  0.2431  0.1942
  520CHL1  H21A66747   3.534   0.912   3.427  1.5996  0.7741 -1.5898
  520CHL1  H21B66748   3.354   0.961   3.439 -0.5646 -0.9899 -0.4068
  520CHL1  H21C66749   3.450   0.982   3.286 -3.2611  0.2556 -0.5967
  520CHL1   C2266750   3.381   0.694   3.450 -0.2724  0.0133  0.1082
  520CHL1  H22A66751   3.379   0.586   3.423  1.1441  0.1114 -0.4901
  520CHL1  H22B66752   3.458   0.703   3.529 -0.7718 -0.4044  0.6501
  520CHL1   C2366753   3.251   0.721   3.529 -0.3188  0.7226  0.7527
  520CHL1  H23A66754   3.229   0.829   3.544  0.2660  0.9808 -0.1392
  520CHL1  H23B66755   3.166   0.678   3.471 -0.1878 -1.7790  2.2824
  520CHL1   C2466756   3.249   0.653   3.663  0.5616  0.1179  0.3304
  520CHL1  H24A66757   3.153   0.678   3.712  0.3384  0.0683 -0.0717
  520CHL1  H24B66758   3.251   0.543   3.646  0.0218  0.2385 -0.6056
  520CHL1   C2566759   3.350   0.690   3.768  0.2789  0.3925  0.4497
  520CHL1   H2566760   3.446   0.642   3.740 -0.5311 -1.8189  1.2656
  520CHL1   C2666761   3.371   0.837   3.793 -0.4365  0.1652  0.0927
  520CHL1  H26A66762   3.415   0.883   3.701  1.7283 -1.6253  0.1426
  520CHL1  H26B66763   3.281   0.889   3.831  0.0872  1.2348 -0.0841
  520CHL1  H26C66764   3.445   0.864   3.872  0.2321 -1.7506  0.1523
  520CHL1   C2766765   3.322   0.622   3.902 -0.3027 -0.2479 -0.5606
  520CHL1  H27A66766   3.282   0.521   3.878 -1.5967  0.3123 -0.8781
  520CHL1  H27B66767   3.405   0.629   3.974 -0.5358  0.3121 -0.3366
  520CHL1  H27C66768   3.237   0.681   3.943 -0.2773 -1.0864  0.7255
  12.38028  12.38028   8.40240
